Martini system from ../2_Creating_coordinates/TYR-LYS-TYR_aa.pdb
 4256
    1TYR     BB    1   0.727   4.107   4.250
    1TYR    SC1    2   0.691   4.319   4.485
    1TYR    SC2    3   0.593   4.376   4.730
    1TYR    SC3    4   0.780   4.536   4.618
    2LYS     BB    5   0.817   3.815   4.390
    2LYS    SC1    6   0.712   3.560   4.212
    2LYS    SC2    7   0.766   3.300   4.130
    3TYR     BB    8   0.738   3.852   4.715
    3TYR    SC1    9   0.939   4.086   4.784
    3TYR    SC2   10   1.048   4.292   4.922
    3TYR    SC3   11   1.125   4.244   4.668
    1TYR     BB   12   2.737   7.183   2.722
    1TYR    SC1   13   2.445   7.197   2.844
    1TYR    SC2   14   2.221   7.344   2.873
    1TYR    SC3   15   2.206   7.075   2.865
    2LYS     BB   16   2.743   6.924   2.531
    2LYS    SC1   17   2.988   6.742   2.656
    2LYS    SC2   18   3.108   6.527   2.535
    3TYR     BB   19   2.764   6.816   2.218
    3TYR    SC1   20   2.546   6.932   2.052
    3TYR    SC2   21   2.475   7.133   1.886
    3TYR    SC3   22   2.297   6.940   1.948
    1TYR     BB   23   5.499   3.173   4.416
    1TYR    SC1   24   5.544   3.347   4.667
    1TYR    SC2   25   5.459   3.537   4.839
    1TYR    SC3   26   5.592   3.321   4.931
    2LYS     BB   27   5.422   2.877   4.532
    2LYS    SC1   28   5.355   2.669   4.305
    2LYS    SC2   29   5.419   2.454   4.168
    3TYR     BB   30   5.570   2.816   4.771
    3TYR    SC1   31   5.471   2.592   4.962
    3TYR    SC2   32   5.305   2.443   5.115
    3TYR    SC3   33   5.570   2.448   5.168
    1TYR     BB   34   1.242   0.014   2.483
    1TYR    SC1   35   1.384   7.735   2.469
    1TYR    SC2   36   1.499   7.520   2.352
    1TYR    SC3   37   1.343   7.488   2.570
    2LYS     BB   38   1.318   0.251   2.260
    2LYS    SC1   39   1.283   0.534   2.413
    2LYS    SC2   40   1.237   0.800   2.397
    3TYR     BB   41   1.512   0.382   2.001
    3TYR    SC1   42   1.748   0.491   2.173
    3TYR    SC2   43   1.893   0.690   2.284
    3TYR    SC3   44   2.015   0.466   2.196
    1TYR     BB   45   0.678   6.556   4.936
    1TYR    SC1   46   0.438   6.747   4.874
    1TYR    SC2   47   0.175   6.791   4.834
    1TYR    SC3   48   0.346   7.000   4.852
    2LYS     BB   49   0.701   6.484   5.248
    2LYS    SC1   50   1.025   6.527   5.299
    2LYS    SC2   51   1.279   6.442   5.328
    3TYR     BB   52   0.611   6.494   5.584
    3TYR    SC1   53   0.798   6.694   5.719
    3TYR    SC2   54   1.037   6.819   5.722
    3TYR    SC3   55   0.817   6.947   5.811
    1TYR     BB   56   6.121   0.974   2.691
    1TYR    SC1   57   6.329   1.076   2.880
    1TYR    SC2   58   6.357   1.080   3.149
    1TYR    SC3   59   6.570   1.131   2.990
    2LYS     BB   60   5.901   0.842   2.867
    2LYS    SC1   61   6.039   0.615   3.044
    2LYS    SC2   62   6.052   0.436   3.253
    3TYR     BB   63   5.621   0.947   2.894
    3TYR    SC1   64   5.652   1.254   2.973
    3TYR    SC2   65   5.678   1.517   3.025
    3TYR    SC3   66   5.893   1.373   2.949
    1TYR     BB   67   5.162   3.471   5.735
    1TYR    SC1   68   4.997   3.586   5.970
    1TYR    SC2   69   5.001   3.733   6.196
    1TYR    SC3   70   4.767   3.685   6.072
    2LYS     BB   71   5.322   3.204   5.811
    2LYS    SC1   72   5.108   2.970   5.746
    2LYS    SC2   73   5.144   2.713   5.685
    3TYR     BB   74   5.351   3.195   6.128
    3TYR    SC1   75   5.390   3.489   6.210
    3TYR    SC2   76   5.450   3.638   6.427
    3TYR    SC3   77   5.456   3.750   6.182
    1TYR     BB   78   5.258   2.126   2.494
    1TYR    SC1   79   5.285   2.022   2.775
    1TYR    SC2   80   5.501   1.951   2.921
    1TYR    SC3   81   5.277   2.036   3.045
    2LYS     BB   82   5.420   2.427   2.523
    2LYS    SC1   83   5.381   2.525   2.220
    2LYS    SC2   84   5.207   2.689   2.102
    3TYR     BB   85   5.395   2.533   2.813
    3TYR    SC1   86   5.120   2.444   2.930
    3TYR    SC2   87   4.955   2.424   3.143
    3TYR    SC3   88   4.908   2.277   2.922
    1TYR     BB   89   1.483   2.079   4.418
    1TYR    SC1   90   1.359   2.351   4.324
    1TYR    SC2   91   1.439   2.586   4.219
    1TYR    SC3   92   1.190   2.561   4.319
    2LYS     BB   93   1.534   2.078   4.755
    2LYS    SC1   94   1.842   2.135   4.832
    2LYS    SC2   95   2.068   2.241   4.744
    3TYR     BB   96   1.278   2.035   4.998
    3TYR    SC1   97   1.098   2.247   4.870
    3TYR    SC2   98   0.977   2.359   4.656
    3TYR    SC3   99   1.167   2.496   4.790
    1TYR     BB  100   7.278   2.189   4.037
    1TYR    SC1  101   7.309   1.881   4.020
    1TYR    SC2  102   7.244   1.619   4.027
    1TYR    SC3  103   7.491   1.695   3.948
    2LYS     BB  104   7.594   2.290   4.034
    2LYS    SC1  105   7.600   2.607   4.087
    2LYS    SC2  106   7.729   2.803   3.941
    3TYR     BB  107   7.829   2.302   3.772
    3TYR    SC1  108   7.943   2.011   3.773
    3TYR    SC2  109   0.017   1.804   3.616
    3TYR    SC3  110   0.156   1.859   3.841
    1TYR     BB  111   2.855   0.761   6.300
    1TYR    SC1  112   3.072   0.561   6.413
    1TYR    SC2  113   3.117   0.363   6.591
    1TYR    SC3  114   3.325   0.489   6.474
    2LYS     BB  115   2.793   0.671   6.023
    2LYS    SC1  116   2.809   0.907   5.808
    2LYS    SC2  117   2.659   1.051   5.638
    3TYR     BB  118   2.894   0.421   5.864
    3TYR    SC1  119   3.148   0.333   5.999
    3TYR    SC2  120   3.244   0.160   6.183
    3TYR    SC3  121   3.414   0.312   6.038
    1TYR     BB  122   1.742   3.753   2.726
    1TYR    SC1  123   2.039   3.732   2.634
    1TYR    SC2  124   2.272   3.784   2.507
    1TYR    SC3  125   2.245   3.557   2.650
    2LYS     BB  126   1.710   3.579   2.987
    2LYS    SC1  127   1.724   3.786   3.227
    2LYS    SC2  128   1.588   3.979   3.335
    3TYR     BB  129   1.613   3.287   3.008
    3TYR    SC1  130   1.587   3.179   2.712
    3TYR    SC2  131   1.671   2.970   2.562
    3TYR    SC3  132   1.474   3.130   2.471
    1TYR     BB  133   0.063   6.664   1.912
    1TYR    SC1  134   7.829   6.596   2.104
    1TYR    SC2  135   7.598   6.463   2.148
    1TYR    SC3  136   7.773   6.500   2.350
    2LYS     BB  137   0.236   6.374   1.932
    2LYS    SC1  138   0.464   6.350   1.711
    2LYS    SC2  139   0.559   6.305   1.463
    3TYR     BB  140   0.142   6.183   2.153
    3TYR    SC1  141   0.339   5.949   2.189
    3TYR    SC2  142   0.409   5.696   2.129
    3TYR    SC3  143   0.579   5.853   2.268
    1TYR     BB  144   2.667   7.413   6.300
    1TYR    SC1  145   2.437   7.202   6.250
    1TYR    SC2  146   2.171   7.170   6.285
    1TYR    SC3  147   2.316   6.975   6.169
    2LYS     BB  148   2.576   7.672   6.134
    2LYS    SC1  149   2.622   7.942   6.316
    2LYS    SC2  150   2.759   0.173   6.294
    3TYR     BB  151   2.269   7.685   6.053
    3TYR    SC1  152   2.207   7.432   5.892
    3TYR    SC2  153   2.064   7.212   5.828
    3TYR    SC3  154   2.191   7.351   5.634
    1TYR     BB  155   4.848   4.415   0.840
    1TYR    SC1  156   5.024   4.647   0.771
    1TYR    SC2  157   5.222   4.700   0.596
    1TYR    SC3  158   5.249   4.770   0.855
    2LYS     BB  159   5.023   4.168   0.742
    2LYS    SC1  160   4.891   3.968   0.528
    2LYS    SC2  161   4.853   3.953   0.272
    3TYR     BB  162   5.316   4.211   0.622
    3TYR    SC1  163   5.245   4.311   0.339
    3TYR    SC2  164   5.231   4.371   0.077
    3TYR    SC3  165   5.026   4.434   0.241
    1TYR     BB  166   5.987   7.013   7.596
    1TYR    SC1  167   6.282   7.055   7.504
    1TYR    SC2  168   6.492   7.051   7.334
    1TYR    SC3  169   6.524   7.144   7.586
    2LYS     BB  170   5.825   6.998   7.313
    2LYS    SC1  171   5.544   7.150   7.328
    2LYS    SC2  172   5.309   7.159   7.437
    3TYR     BB  173   5.972   7.068   7.064
    3TYR    SC1  174   6.169   7.294   7.117
    3TYR    SC2  175   6.404   7.389   7.023
    3TYR    SC3  176   6.316   7.462   7.268
    1TYR     BB  177   3.198   5.726   3.957
    1TYR    SC1  178   3.178   5.724   3.652
    1TYR    SC2  179   3.239   5.566   3.442
    1TYR    SC3  180   2.991   5.669   3.465
    2LYS     BB  181   3.058   5.427   4.024
    2LYS    SC1  182   3.103   5.210   4.263
    2LYS    SC2  183   3.146   4.945   4.243
    3TYR     BB  184   2.994   5.259   3.790
    3TYR    SC1  185   3.199   5.125   3.612
    3TYR    SC2  186   3.416   5.037   3.479
    3TYR    SC3  187   3.175   4.925   3.433
    1TYR     BB  188   4.962   6.755   2.083
    1TYR    SC1  189   4.898   6.454   2.153
    1TYR    SC2  190   4.746   6.247   2.072
    1TYR    SC3  191   4.927   6.213   2.270
    2LYS     BB  192   4.645   6.850   1.981
    2LYS    SC1  193   4.548   7.132   1.867
    2LYS    SC2  194   4.356   7.305   1.838
    3TYR     BB  195   4.422   6.689   2.079
    3TYR    SC1  196   4.345   6.460   1.883
    3TYR    SC2  197   4.166   6.289   1.774
    3TYR    SC3  198   4.385   6.363   1.634
    1TYR     BB  199   7.700   6.062   5.821
    1TYR    SC1  200   7.758   6.159   6.105
    1TYR    SC2  201   7.669   6.284   6.327
    1TYR    SC3  202   7.889   6.129   6.340
    2LYS     BB  203   7.476   5.804   5.910
    2LYS    SC1  204   7.213   5.909   5.767
    2LYS    SC2  205   6.964   5.859   5.713
    3TYR     BB  206   7.413   5.785   6.242
    3TYR    SC1  207   7.503   5.485   6.300
    3TYR    SC2  208   7.549   5.271   6.457
    3TYR    SC3  209   7.605   5.259   6.193
    1TYR     BB  210   3.917   6.109   0.328
    1TYR    SC1  211   3.875   6.192   0.627
    1TYR    SC2  212   3.873   6.267   0.886
    1TYR    SC3  213   3.673   6.345   0.722
    2LYS     BB  214   3.610   6.243   0.206
    2LYS    SC1  215   3.561   6.079   7.941
    2LYS    SC2  216   3.394   6.102   7.735
    3TYR     BB  217   3.414   6.504   0.236
    3TYR    SC1  218   3.280   6.439   0.517
    3TYR    SC2  219   3.246   6.472   0.783
    3TYR    SC3  220   3.160   6.246   0.662
    1TYR     BB  221   4.072   4.173   5.763
    1TYR    SC1  222   4.153   4.091   5.474
    1TYR    SC2  223   4.297   4.136   5.250
    1TYR    SC3  224   4.199   3.890   5.299
    2LYS     BB  225   4.395   4.094   5.916
    2LYS    SC1  226   4.401   4.323   6.138
    2LYS    SC2  227   4.475   4.528   6.294
    3TYR     BB  228   4.624   4.160   5.701
    3TYR    SC1  229   4.900   4.033   5.787
    3TYR    SC2  230   5.152   4.022   5.885
    3TYR    SC3  231   5.104   3.955   5.628
    1TYR     BB  232   1.475   6.097   3.524
    1TYR    SC1  233   1.471   5.850   3.690
    1TYR    SC2  234   1.343   5.632   3.784
    1TYR    SC3  235   1.600   5.677   3.852
    2LYS     BB  236   1.386   6.099   3.233
    2LYS    SC1  237   1.271   6.388   3.137
    2LYS    SC2  238   1.178   6.519   2.911
    3TYR     BB  239   1.499   5.847   3.064
    3TYR    SC1  240   1.634   5.681   3.291
    3TYR    SC2  241   1.637   5.463   3.450
    3TYR    SC3  242   1.842   5.638   3.457
    1TYR     BB  243   3.798   4.498   0.081
    1TYR    SC1  244   4.006   4.400   7.858
    1TYR    SC2  245   4.149   4.196   7.755
    1TYR    SC3  246   4.189   4.447   7.665
    2LYS     BB  247   3.527   4.390   7.947
    2LYS    SC1  248   3.288   4.498   0.125
    2LYS    SC2  249   3.097   4.424   0.291
    3TYR     BB  250   3.599   4.083   7.850
    3TYR    SC1  251   3.722   4.129   7.582
    3TYR    SC2  252   3.686   4.093   7.317
    3TYR    SC3  253   3.859   4.281   7.405
    1TYR     BB  254   3.511   1.322   2.649
    1TYR    SC1  255   3.467   1.611   2.545
    1TYR    SC2  256   3.480   1.880   2.528
    1TYR    SC3  257   3.243   1.754   2.497
    2LYS     BB  258   3.665   1.343   2.924
    2LYS    SC1  259   3.911   1.133   2.885
    2LYS    SC2  260   4.010   0.969   2.691
    3TYR     BB  261   3.615   1.651   3.111
    3TYR    SC1  262   3.741   1.831   2.893
    3TYR    SC2  263   3.878   2.012   2.747
    3TYR    SC3  264   3.906   1.749   2.696
    1TYR     BB  265   5.995   1.026   4.260
    1TYR    SC1  266   5.716   0.941   4.157
    1TYR    SC2  267   5.542   0.951   3.951
    1TYR    SC3  268   5.561   0.727   4.100
    2LYS     BB  269   6.147   0.805   3.972
    2LYS    SC1  270   6.080   0.557   4.166
    2LYS    SC2  271   6.205   0.504   4.399
    3TYR     BB  272   6.251   0.772   3.628
    3TYR    SC1  273   6.031   0.899   3.463
    3TYR    SC2  274   5.935   1.095   3.304
    3TYR    SC3  275   5.768   0.908   3.402
    1TYR     BB  276   1.056   1.642   3.471
    1TYR    SC1  277   0.929   1.483   3.232
    1TYR    SC2  278   0.873   1.254   3.100
    1TYR    SC3  279   0.699   1.461   3.091
    2LYS     BB  280   1.016   1.405   3.702
    2LYS    SC1  281   1.233   1.452   3.921
    2LYS    SC2  282   1.233   1.538   4.174
    3TYR     BB  283   0.844   1.167   3.635
    3TYR    SC1  284   0.589   1.135   3.800
    3TYR    SC2  285   0.330   1.057   3.806
    3TYR    SC3  286   0.414   1.259   3.964
    1TYR     BB  287   2.409   3.501   1.578
    1TYR    SC1  288   2.108   3.545   1.660
    1TYR    SC2  289   1.941   3.730   1.764
    1TYR    SC3  290   1.875   3.468   1.772
    2LYS     BB  291   2.400   3.368   1.280
    2LYS    SC1  292   2.649   3.332   1.078
    2LYS    SC2  293   2.786   3.194   0.898
    3TYR     BB  294   2.182   3.474   1.067
    3TYR    SC1  295   2.033   3.691   1.221
    3TYR    SC2  296   1.941   3.937   1.286
    3TYR    SC3  297   1.791   3.718   1.338
    1TYR     BB  298   2.074   1.140   2.149
    1TYR    SC1  299   1.859   1.310   2.011
    1TYR    SC2  300   1.800   1.533   1.870
    1TYR    SC3  301   1.606   1.405   2.007
    2LYS     BB  302   2.234   1.024   1.860
    2LYS    SC1  303   1.994   0.817   1.794
    2LYS    SC2  304   1.886   0.601   1.700
    3TYR     BB  305   2.207   1.213   1.577
    3TYR    SC1  306   1.909   1.259   1.525
    3TYR    SC2  307   1.688   1.376   1.424
    3TYR    SC3  308   1.665   1.169   1.596
    1TYR     BB  309   5.120   6.519   5.190
    1TYR    SC1  310   5.364   6.689   5.180
    1TYR    SC2  311   5.463   6.899   5.042
    1TYR    SC3  312   5.595   6.806   5.258
    2LYS     BB  313   4.911   6.673   5.357
    2LYS    SC1  314   4.699   6.455   5.440
    2LYS    SC2  315   4.462   6.360   5.423
    3TYR     BB  316   4.862   6.974   5.340
    3TYR    SC1  317   5.134   7.120   5.268
    3TYR    SC2  318   5.274   7.311   5.138
    3TYR    SC3  319   5.373   7.200   5.364
    1TYR     BB  320   6.539   4.073   4.078
    1TYR    SC1  321   6.669   3.832   3.923
    1TYR    SC2  322   6.613   3.567   3.917
    1TYR    SC3  323   6.758   3.680   3.719
    2LYS     BB  324   6.272   3.907   4.189
    2LYS    SC1  325   6.319   3.967   4.505
    2LYS    SC2  326   6.514   4.077   4.669
    3TYR     BB  327   6.139   3.733   3.915
    3TYR    SC1  328   6.258   3.673   3.627
    3TYR    SC2  329   6.422   3.527   3.471
    3TYR    SC3  330   6.255   3.706   3.359
    1TYR     BB  331   7.250   7.105   2.956
    1TYR    SC1  332   7.345   7.236   3.212
    1TYR    SC2  333   7.482   7.178   3.437
    1TYR    SC3  334   7.330   7.401   3.426
    2LYS     BB  335   7.553   6.908   2.900
    2LYS    SC1  336   7.535   6.874   2.589
    2LYS    SC2  337   7.481   6.929   2.331
    3TYR     BB  338   7.852   6.983   3.097
    3TYR    SC1  339   7.795   7.287   3.097
    3TYR    SC2  340   7.713   7.532   3.174
    3TYR    SC3  341   7.650   7.440   2.928
    1TYR     BB  342   3.472   7.129   4.889
    1TYR    SC1  343   3.553   7.025   4.610
    1TYR    SC2  344   3.739   7.078   4.422
    1TYR    SC3  345   3.599   6.848   4.412
    2LYS     BB  346   3.696   7.404   4.899
    2LYS    SC1  347   3.546   7.598   5.118
    2LYS    SC2  348   3.575   7.794   5.319
    3TYR     BB  349   3.998   7.274   4.824
    3TYR    SC1  350   3.987   6.963   4.802
    3TYR    SC2  351   4.094   6.723   4.738
    3TYR    SC3  352   3.838   6.738   4.823
    1TYR     BB  353   7.074   2.802   4.775
    1TYR    SC1  354   6.937   3.009   4.568
    1TYR    SC2  355   6.792   3.211   4.464
    1TYR    SC3  356   6.871   3.007   4.306
    2LYS     BB  357   7.380   2.784   4.608
    2LYS    SC1  358   7.471   2.477   4.569
    2LYS    SC2  359   7.389   2.217   4.538
    3TYR     BB  360   7.411   3.018   4.376
    3TYR    SC1  361   7.273   2.976   4.103
    3TYR    SC2  362   7.286   3.040   3.841
    3TYR    SC3  363   7.151   2.820   3.919
    1TYR     BB  364   2.268   0.960   7.498
    1TYR    SC1  365   2.356   0.968   7.800
    1TYR    SC2  366   2.259   0.996   0.051
    1TYR    SC3  367   2.502   0.885   0.011
    2LYS     BB  368   1.959   1.062   7.522
    2LYS    SC1  369   1.876   1.333   7.387
    2LYS    SC2  370   1.765   1.401   7.157
    3TYR     BB  371   1.766   0.905   7.731
    3TYR    SC1  372   1.957   0.658   7.788
    3TYR    SC2  373   2.036   0.411   7.711
    3TYR    SC3  374   2.190   0.555   7.880
    1TYR     BB  375   5.500   2.991   3.904
    1TYR    SC1  376   5.729   2.892   4.071
    1TYR    SC2  377   5.869   2.810   4.287
    1TYR    SC3  378   5.923   3.049   4.174
    2LYS     BB  379   5.601   2.975   3.606
    2LYS    SC1  380   5.512   3.205   3.402
    2LYS    SC2  381   5.315   3.264   3.228
    3TYR     BB  382   5.841   2.809   3.438
    3TYR    SC1  383   6.035   3.038   3.395
    3TYR    SC2  384   6.253   3.159   3.290
    3TYR    SC3  385   6.031   3.303   3.346
    1TYR     BB  386   2.370   4.429   5.761
    1TYR    SC1  387   2.614   4.248   5.707
    1TYR    SC2  388   2.700   4.096   5.501
    1TYR    SC3  389   2.861   4.287   5.604
    2LYS     BB  390   2.410   4.574   5.420
    2LYS    SC1  391   2.345   4.869   5.521
    2LYS    SC2  392   2.119   4.912   5.662
    3TYR     BB  393   2.383   4.369   5.204
    3TYR    SC1  394   2.421   4.427   4.910
    3TYR    SC2  395   2.380   4.353   4.654
    3TYR    SC3  396   2.585   4.518   4.716
    1TYR     BB  397   1.517   5.196   1.791
    1TYR    SC1  398   1.712   5.147   1.553
    1TYR    SC2  399   1.748   5.089   1.292
    1TYR    SC3  400   1.869   5.304   1.401
    2LYS     BB  401   1.256   5.316   1.653
    2LYS    SC1  402   1.066   5.393   1.903
    2LYS    SC2  403   0.983   5.550   2.109
    3TYR     BB  404   1.251   5.330   1.337
    3TYR    SC1  405   1.465   5.514   1.201
    3TYR    SC2  406   1.688   5.538   1.051
    3TYR    SC3  407   1.472   5.691   0.997
    1TYR     BB  408   4.209   0.800   6.642
    1TYR    SC1  409   4.178   0.546   6.837
    1TYR    SC2  410   4.280   0.447   7.067
    1TYR    SC3  411   4.012   0.451   7.029
    2LYS     BB  412   4.124   1.019   6.900
    2LYS    SC1  413   4.120   1.319   6.768
    2LYS    SC2  414   4.242   1.550   6.689
    3TYR     BB  415   4.357   0.934   7.164
    3TYR    SC1  416   4.176   0.804   7.371
    3TYR    SC2  417   4.033   0.595   7.465
    3TYR    SC3  418   4.020   0.835   7.589
    1TYR     BB  419   1.778   4.092   0.399
    1TYR    SC1  420   2.040   3.956   0.310
    1TYR    SC2  421   2.287   3.847   0.314
    1TYR    SC3  422   2.215   4.008   0.110
    2LYS     BB  423   1.635   4.053   0.037
    2LYS    SC1  424   1.355   3.958   0.169
    2LYS    SC2  425   1.297   3.913   0.427
    3TYR     BB  426   1.853   4.049   7.773
    3TYR    SC1  427   1.882   4.177   7.485
    3TYR    SC2  428   1.783   4.222   7.238
    3TYR    SC3  429   2.049   4.193   7.274
    1TYR     BB  430   6.233   2.471   0.869
    1TYR    SC1  431   6.004   2.597   0.696
    1TYR    SC2  432   5.833   2.673   0.501
    1TYR    SC3  433   5.856   2.821   0.726
    2LYS     BB  434   6.114   2.196   0.975
    2LYS    SC1  435   6.186   2.195   1.287
    2LYS    SC2  436   6.386   2.093   1.427
    3TYR     BB  437   5.860   2.094   0.822
    3TYR    SC1  438   5.596   2.165   0.958
    3TYR    SC2  439   5.335   2.192   0.895
    3TYR    SC3  440   5.413   2.199   1.154
    1TYR     BB  441   6.195   3.126   6.183
    1TYR    SC1  442   6.478   2.987   6.153
    1TYR    SC2  443   6.612   2.780   6.044
    1TYR    SC3  444   6.738   3.014   6.088
    2LYS     BB  445   6.276   3.438   6.232
    2LYS    SC1  446   6.026   3.629   6.336
    2LYS    SC2  447   5.957   3.843   6.179
    3TYR     BB  448   6.372   3.614   5.950
    3TYR    SC1  449   6.503   3.375   5.790
    3TYR    SC2  450   6.439   3.119   5.732
    3TYR    SC3  451   6.687   3.213   5.677
    1TYR     BB  452   2.627   4.046   3.861
    1TYR    SC1  453   2.706   3.777   3.998
    1TYR    SC2  454   2.740   3.509   3.989
    1TYR    SC3  455   2.901   3.660   4.145
    2LYS     BB  456   2.810   3.994   3.560
    2LYS    SC1  457   2.870   4.041   3.233
    2LYS    SC2  458   3.051   3.897   3.104
    3TYR     BB  459   2.915   3.699   3.565
    3TYR    SC1  460   3.147   3.667   3.752
    3TYR    SC2  461   3.394   3.558   3.762
    3TYR    SC3  462   3.322   3.746   3.942
    1TYR     BB  463   6.151   5.433   4.243
    1TYR    SC1  464   6.447   5.390   4.307
    1TYR    SC2  465   6.696   5.364   4.206
    1TYR    SC3  466   6.660   5.383   4.473
    2LYS     BB  467   6.184   5.703   4.063
    2LYS    SC1  468   5.966   5.887   4.183
    2LYS    SC2  469   5.801   6.074   4.147
    3TYR     BB  470   6.490   5.755   3.921
    3TYR    SC1  471   6.657   5.832   4.155
    3TYR    SC2  472   6.757   6.033   4.305
    3TYR    SC3  473   6.857   5.784   4.330
    1TYR     BB  474   2.159   4.816   1.498
    1TYR    SC1  475   2.457   4.693   1.475
    1TYR    SC2  476   2.715   4.649   1.540
    1TYR    SC3  477   2.526   4.468   1.607
    2LYS     BB  478   2.154   4.758   1.852
    2LYS    SC1  479   1.987   5.002   1.979
    2LYS    SC2  480   1.813   5.019   2.181
    3TYR     BB  481   2.461   4.869   1.960
    3TYR    SC1  482   2.684   4.661   2.006
    3TYR    SC2  483   2.948   4.607   2.014
    3TYR    SC3  484   2.770   4.405   1.994
    1TYR     BB  485   5.372   2.195   7.232
    1TYR    SC1  486   5.227   2.390   7.052
    1TYR    SC2  487   5.208   2.556   6.840
    1TYR    SC3  488   5.005   2.539   7.017
    2LYS     BB  489   5.635   2.086   7.095
    2LYS    SC1  490   5.663   1.790   7.236
    2LYS    SC2  491   5.763   1.549   7.253
    3TYR     BB  492   5.612   2.110   6.786
    3TYR    SC1  493   5.327   2.158   6.659
    3TYR    SC2  494   5.177   2.261   6.460
    3TYR    SC3  495   5.058   2.156   6.678
    1TYR     BB  496   3.626   4.952   4.435
    1TYR    SC1  497   3.590   5.255   4.370
    1TYR    SC2  498   3.676   5.502   4.438
    1TYR    SC3  499   3.536   5.466   4.210
    2LYS     BB  500   3.960   4.956   4.405
    2LYS    SC1  501   4.142   4.693   4.417
    2LYS    SC2  502   4.409   4.644   4.432
    3TYR     BB  503   4.039   5.125   4.141
    3TYR    SC1  504   3.781   5.167   3.969
    3TYR    SC2  505   3.608   5.298   3.810
    3TYR    SC3  506   3.528   5.077   3.943
    1TYR     BB  507   3.437   2.664   3.653
    1TYR    SC1  508   3.379   2.372   3.758
    1TYR    SC2  509   3.263   2.130   3.727
    1TYR    SC3  510   3.322   2.221   3.974
    2LYS     BB  511   3.664   2.760   3.887
    2LYS    SC1  512   3.843   2.981   3.738
    2LYS    SC2  513   4.100   3.051   3.721
    3TYR     BB  514   3.797   2.559   4.058
    3TYR    SC1  515   3.633   2.394   4.249
    3TYR    SC2  516   3.591   2.151   4.359
    3TYR    SC3  517   3.519   2.374   4.493
    1TYR     BB  518   6.674   0.547   4.148
    1TYR    SC1  519   6.821   0.313   3.988
    1TYR    SC2  520   6.800   0.134   3.787
    1TYR    SC3  521   7.041   0.237   3.851
    2LYS     BB  522   6.956   0.770   4.182
    2LYS    SC1  523   6.930   1.088   4.286
    2LYS    SC2  524   6.798   1.333   4.290
    3TYR     BB  525   7.090   0.853   3.869
    3TYR    SC1  526   6.944   0.650   3.689
    3TYR    SC2  527   6.696   0.563   3.629
    3TYR    SC3  528   6.905   0.492   3.473
    1TYR     BB  529   4.044   0.113   5.362
    1TYR    SC1  530   4.314   7.982   5.346
    1TYR    SC2  531   4.542   7.937   5.209
    1TYR    SC3  532   4.481   7.784   5.423
    2LYS     BB  533   4.080   0.408   5.472
    2LYS    SC1  534   3.864   0.610   5.347
    2LYS    SC2  535   3.732   0.834   5.298
    3TYR     BB  536   4.029   0.435   5.803
    3TYR    SC1  537   4.177   0.188   5.898
    3TYR    SC2  538   4.266   7.993   6.063
    3TYR    SC3  539   4.375   0.023   5.818
    1TYR     BB  540   6.093   6.005   6.157
    1TYR    SC1  541   6.036   6.292   6.273
    1TYR    SC2  542   6.110   6.460   6.470
    1TYR    SC3  543   6.028   6.559   6.233
    2LYS     BB  544   6.039   5.934   5.857
    2LYS    SC1  545   6.161   5.638   5.803
    2LYS    SC2  546   6.176   5.377   5.764
    3TYR     BB  547   5.748   5.920   5.668
    3TYR    SC1  548   5.813   6.155   5.476
    3TYR    SC2  549   6.015   6.269   5.339
    3TYR    SC3  550   5.782   6.401   5.370
    1TYR     BB  551   1.712   4.629   4.702
    1TYR    SC1  552   1.731   4.936   4.766
    1TYR    SC2  553   1.684   5.148   4.926
    1TYR    SC3  554   1.818   5.181   4.694
    2LYS     BB  555   1.473   4.541   4.903
    2LYS    SC1  556   1.241   4.738   4.769
    2LYS    SC2  557   1.213   5.000   4.799
    3TYR     BB  558   1.474   4.737   5.208
    3TYR    SC1  559   1.787   4.784   5.202
    3TYR    SC2  560   2.017   4.680   5.106
    3TYR    SC3  561   2.001   4.943   5.161
    1TYR     BB  562   6.390   2.975   2.571
    1TYR    SC1  563   6.408   2.665   2.615
    1TYR    SC2  564   6.608   2.484   2.607
    1TYR    SC3  565   6.407   2.455   2.785
    2LYS     BB  566   6.740   3.035   2.573
    2LYS    SC1  567   6.772   3.339   2.483
    2LYS    SC2  568   6.701   3.597   2.489
    3TYR     BB  569   6.886   2.836   2.388
    3TYR    SC1  570   7.182   2.819   2.421
    3TYR    SC2  571   7.423   2.825   2.300
    3TYR    SC3  572   7.407   2.794   2.567
    1TYR     BB  573   0.845   6.342   7.404
    1TYR    SC1  574   0.892   6.081   7.570
    1TYR    SC2  575   0.977   5.955   7.793
    1TYR    SC3  576   0.914   5.812   7.573
    2LYS     BB  577   0.546   6.448   7.406
    2LYS    SC1  578   0.584   6.703   7.607
    2LYS    SC2  579   0.818   6.758   7.736
    3TYR     BB  580   0.341   6.254   7.576
    3TYR    SC1  581   0.521   6.192   7.826
    3TYR    SC2  582   0.724   6.309   7.961
    3TYR    SC3  583   0.624   6.072   0.045
    1TYR     BB  584   1.064   4.760   6.461
    1TYR    SC1  585   1.132   4.472   6.573
    1TYR    SC2  586   1.227   4.226   6.518
    1TYR    SC3  587   1.225   4.315   6.772
    2LYS     BB  588   1.361   4.830   6.313
    2LYS    SC1  589   1.495   5.098   6.437
    2LYS    SC2  590   1.647   5.312   6.397
    3TYR     BB  591   1.551   4.597   6.301
    3TYR    SC1  592   1.619   4.457   6.572
    3TYR    SC2  593   1.679   4.210   6.663
    3TYR    SC3  594   1.669   4.419   6.834
    1TYR     BB  595   1.357   3.751   2.383
    1TYR    SC1  596   1.108   3.899   2.484
    1TYR    SC2  597   0.888   4.024   2.391
    1TYR    SC3  598   0.864   3.828   2.574
    2LYS     BB  599   1.169   3.701   2.056
    2LYS    SC1  600   1.437   3.715   1.879
    2LYS    SC2  601   1.461   3.867   1.667
    3TYR     BB  602   1.004   3.963   1.917
    3TYR    SC1  603   0.749   3.879   1.776
    3TYR    SC2  604   0.570   3.960   1.591
    3TYR    SC3  605   0.564   3.706   1.682
    1TYR     BB  606   6.493   5.159   1.126
    1TYR    SC1  607   6.691   5.314   1.307
    1TYR    SC2  608   6.724   5.536   1.457
    1TYR    SC3  609   6.911   5.342   1.461
    2LYS     BB  610   6.322   5.001   1.360
    2LYS    SC1  611   6.126   4.827   1.183
    2LYS    SC2  612   6.098   4.582   1.086
    3TYR     BB  613   6.359   5.052   1.637
    3TYR    SC1  614   6.563   5.247   1.770
    3TYR    SC2  615   6.620   5.483   1.890
    3TYR    SC3  616   6.787   5.272   1.919
    1TYR     BB  617   3.879   0.705   4.333
    1TYR    SC1  618   3.927   0.424   4.457
    1TYR    SC2  619   4.026   0.180   4.514
    1TYR    SC3  620   3.785   0.254   4.611
    2LYS     BB  621   4.121   0.878   4.520
    2LYS    SC1  622   4.065   1.152   4.370
    2LYS    SC2  623   4.031   1.402   4.322
    3TYR     BB  624   4.385   0.708   4.588
    3TYR    SC1  625   4.288   0.469   4.774
    3TYR    SC2  626   4.299   0.227   4.894
    3TYR    SC3  627   4.091   0.392   4.943
    1TYR     BB  628   5.511   0.768   5.863
    1TYR    SC1  629   5.270   0.932   5.977
    1TYR    SC2  630   5.066   1.057   5.853
    1TYR    SC3  631   5.057   1.015   6.120
    2LYS     BB  632   5.379   0.834   5.499
    2LYS    SC1  633   5.546   0.675   5.279
    2LYS    SC2  634   5.734   0.733   5.090
    3TYR     BB  635   5.188   1.063   5.346
    3TYR    SC1  636   5.023   1.305   5.452
    3TYR    SC2  637   4.890   1.528   5.378
    3TYR    SC3  638   4.816   1.395   5.600
    1TYR     BB  639   7.546   0.749   6.890
    1TYR    SC1  640   7.239   0.726   6.843
    1TYR    SC2  641   7.029   0.590   6.742
    1TYR    SC3  642   6.987   0.803   6.901
    2LYS     BB  643   7.649   0.462   6.789
    2LYS    SC1  644   7.926   0.413   6.947
    2LYS    SC2  645   0.180   0.452   6.871
    3TYR     BB  646   7.414   0.218   6.794
    3TYR    SC1  647   7.243   0.308   7.042
    3TYR    SC2  648   7.004   0.373   7.148
    3TYR    SC3  649   7.227   0.498   7.233
    1TYR     BB  650   0.135   1.850   0.922
    1TYR    SC1  651   0.163   1.548   0.960
    1TYR    SC2  652   0.347   1.394   1.084
    1TYR    SC3  653   0.138   1.279   0.957
    2LYS     BB  654   0.469   1.951   1.011
    2LYS    SC1  655   0.630   2.205   0.870
    2LYS    SC2  656   0.822   2.202   0.668
    3TYR     BB  657   0.618   1.725   0.782
    3TYR    SC1  658   0.774   1.547   0.968
    3TYR    SC2  659   0.828   1.378   1.171
    3TYR    SC3  660   1.026   1.460   1.006
    1TYR     BB  661   3.778   1.099   0.970
    1TYR    SC1  662   4.068   1.144   0.848
    1TYR    SC2  663   4.257   1.252   0.688
    1TYR    SC3  664   4.326   1.072   0.877
    2LYS     BB  665   3.731   1.406   1.080
    2LYS    SC1  666   3.502   1.431   1.296
    2LYS    SC2  667   3.402   1.498   1.536
    3TYR     BB  668   3.697   1.598   0.822
    3TYR    SC1  669   3.992   1.669   0.725
    3TYR    SC2  670   4.187   1.665   0.539
    3TYR    SC3  671   4.225   1.798   0.770
    1TYR     BB  672   6.401   6.953   4.862
    1TYR    SC1  673   6.267   7.207   4.982
    1TYR    SC2  674   6.186   7.465   4.978
    1TYR    SC3  675   6.234   7.343   5.214
    2LYS     BB  676   6.609   6.997   4.625
    2LYS    SC1  677   6.595   6.729   4.442
    2LYS    SC2  678   6.724   6.555   4.269
    3TYR     BB  679   6.635   7.261   4.499
    3TYR    SC1  680   6.534   7.313   4.216
    3TYR    SC2  681   6.584   7.394   3.964
    3TYR    SC3  682   6.330   7.354   4.045
    1TYR     BB  683   0.727   2.998   6.747
    1TYR    SC1  684   0.444   3.026   6.600
    1TYR    SC2  685   0.311   3.194   6.435
    1TYR    SC3  686   0.247   2.931   6.441
    2LYS     BB  687   0.911   3.192   6.540
    2LYS    SC1  688   1.084   3.339   6.770
    2LYS    SC2  689   1.006   3.400   7.018
    3TYR     BB  690   0.732   3.466   6.455
    3TYR    SC1  691   0.723   3.473   6.157
    3TYR    SC2  692   0.721   3.635   5.941
    3TYR    SC3  693   0.853   3.400   5.932
    1TYR     BB  694   4.679   0.676   6.804
    1TYR    SC1  695   4.749   0.576   7.079
    1TYR    SC2  696   4.955   0.427   7.169
    1TYR    SC3  697   4.813   0.579   7.341
    2LYS     BB  698   4.978   0.748   6.675
    2LYS    SC1  699   5.028   1.060   6.624
    2LYS    SC2  700   5.217   1.240   6.675
    3TYR     BB  701   5.241   0.722   6.900
    3TYR    SC1  702   5.117   0.880   7.130
    3TYR    SC2  703   5.065   0.970   7.379
    3TYR    SC3  704   4.891   1.019   7.179
    1TYR     BB  705   7.836   4.074   2.813
    1TYR    SC1  706   0.130   4.125   2.914
    1TYR    SC2  707   0.322   4.044   3.086
    1TYR    SC3  708   0.311   4.302   3.006
    2LYS     BB  709   7.833   4.070   2.489
    2LYS    SC1  710   7.509   4.149   2.442
    2LYS    SC2  711   7.283   4.243   2.293
    3TYR     BB  712   0.153   4.076   2.367
    3TYR    SC1  713   0.407   4.186   2.521
    3TYR    SC2  714   0.609   4.195   2.699
    3TYR    SC3  715   0.591   4.382   2.505
    1TYR     BB  716   6.064   3.816   7.977
    1TYR    SC1  717   6.030   3.525   7.886
    1TYR    SC2  718   5.918   3.418   7.666
    1TYR    SC3  719   6.038   3.258   7.848
    2LYS     BB  720   6.026   3.936   7.589
    2LYS    SC1  721   6.286   4.105   7.639
    2LYS    SC2  722   6.302   4.273   7.852
    3TYR     BB  723   5.900   3.818   7.333
    3TYR    SC1  724   6.117   3.811   7.101
    3TYR    SC2  725   6.192   3.830   6.842
    3TYR    SC3  726   6.361   3.725   7.025
    1TYR     BB  727   5.569   4.621   5.014
    1TYR    SC1  728   5.808   4.495   5.161
    1TYR    SC2  729   5.867   4.500   5.425
    1TYR    SC3  730   5.956   4.298   5.270
    2LYS     BB  731   5.405   4.724   5.318
    2LYS    SC1  732   5.121   4.839   5.227
    2LYS    SC2  733   4.923   4.959   5.328
    3TYR     BB  734   5.499   4.929   5.546
    3TYR    SC1  735   5.751   4.860   5.696
    3TYR    SC2  736   6.019   4.879   5.672
    3TYR    SC3  737   5.911   4.694   5.837
    1TYR     BB  738   0.680   7.701   7.504
    1TYR    SC1  739   0.680   7.692   7.189
    1TYR    SC2  740   0.606   7.755   6.937
    1TYR    SC3  741   0.853   7.658   6.985
    2LYS     BB  742   0.677   0.036   7.558
    2LYS    SC1  743   0.605   0.212   7.823
    2LYS    SC2  744   0.429   0.425   7.850
    3TYR     BB  745   0.389   0.145   7.378
    3TYR    SC1  746   0.543   0.197   7.122
    3TYR    SC2  747   0.616   0.220   6.863
    3TYR    SC3  748   0.800   0.159   7.051
    1TYR     BB  749   3.521   0.050   1.478
    1TYR    SC1  750   3.469   0.361   1.454
    1TYR    SC2  751   3.319   0.574   1.524
    1TYR    SC3  752   3.483   0.589   1.311
    2LYS     BB  753   3.342   7.947   1.748
    2LYS    SC1  754   3.421   7.644   1.836
    2LYS    SC2  755   3.378   7.425   1.998
    3TYR     BB  756   3.201   0.218   1.919
    3TYR    SC1  757   3.449   0.398   1.914
    3TYR    SC2  758   3.623   0.604   1.920
    3TYR    SC3  759   3.714   0.350   1.929
    1TYR     BB  760   7.984   6.928   6.168
    1TYR    SC1  761   7.849   7.056   6.424
    1TYR    SC2  762   7.638   7.140   6.570
    1TYR    SC3  763   7.866   7.064   6.694
    2LYS     BB  764   0.046   6.629   6.276
    2LYS    SC1  765   0.130   6.467   6.012
    2LYS    SC2  766   0.134   6.384   5.757
    3TYR     BB  767   0.024   6.574   6.572
    3TYR    SC1  768   0.198   6.659   6.814
    3TYR    SC2  769   0.199   6.614   7.080
    3TYR    SC3  770   0.371   6.792   6.973
    1TYR     BB  771   6.414   6.624   3.573
    1TYR    SC1  772   6.399   6.720   3.871
    1TYR    SC2  773   6.518   6.937   3.979
    1TYR    SC3  774   6.281   6.850   4.076
    2LYS     BB  775   6.576   6.944   3.471
    2LYS    SC1  776   6.659   6.862   3.177
    2LYS    SC2  777   6.680   6.895   2.926
    3TYR     BB  778   6.401   7.198   3.527
    3TYR    SC1  779   6.479   7.495   3.537
    3TYR    SC2  780   6.678   7.676   3.566
    3TYR    SC3  781   6.431   7.729   3.663
    1TYR     BB  782   4.795   3.788   1.437
    1TYR    SC1  783   4.786   4.090   1.367
    1TYR    SC2  784   4.915   4.322   1.321
    1TYR    SC3  785   4.645   4.315   1.320
    2LYS     BB  786   4.928   3.646   1.194
    2LYS    SC1  787   4.962   3.330   1.189
    2LYS    SC2  788   5.142   3.211   1.012
    3TYR     BB  789   5.090   3.767   0.999
    3TYR    SC1  790   5.206   3.652   0.739
    3TYR    SC2  791   5.356   3.726   0.526
    3TYR    SC3  792   5.197   3.508   0.511
    1TYR     BB  793   3.534   3.156   5.088
    1TYR    SC1  794   3.825   3.105   4.994
    1TYR    SC2  795   4.072   3.137   5.099
    1TYR    SC3  796   4.001   2.901   4.988
    2LYS     BB  797   3.573   2.959   5.378
    2LYS    SC1  798   3.419   3.094   5.623
    2LYS    SC2  799   3.378   3.096   5.890
    3TYR     BB  800   3.892   2.887   5.509
    3TYR    SC1  801   4.201   2.855   5.423
    3TYR    SC2  802   4.429   2.963   5.327
    3TYR    SC3  803   4.429   2.710   5.420
    1TYR     BB  804   3.822   6.102   1.383
    1TYR    SC1  805   4.013   6.339   1.318
    1TYR    SC2  806   4.087   6.594   1.364
    1TYR    SC3  807   4.227   6.442   1.190
    2LYS     BB  808   3.654   6.212   1.637
    2LYS    SC1  809   3.351   6.176   1.567
    2LYS    SC2  810   3.127   6.231   1.701
    3TYR     BB  811   3.710   6.508   1.702
    3TYR    SC1  812   3.830   6.532   1.979
    3TYR    SC2  813   3.827   6.696   2.193
    3TYR    SC3  814   3.983   6.476   2.194
    1TYR     BB  815   4.909   5.161   3.949
    1TYR    SC1  816   5.116   5.190   4.187
    1TYR    SC2  817   5.351   5.117   4.298
    1TYR    SC3  818   5.198   5.306   4.416
    2LYS     BB  819   5.056   5.323   3.714
    2LYS    SC1  820   5.142   5.096   3.495
    2LYS    SC2  821   5.350   5.135   3.327
    3TYR     BB  822   5.337   5.464   3.757
    3TYR    SC1  823   5.439   5.503   4.047
    3TYR    SC2  824   5.649   5.452   4.209
    3TYR    SC3  825   5.479   5.653   4.268
    1TYR     BB  826   5.654   5.698   2.852
    1TYR    SC1  827   5.846   5.835   3.049
    1TYR    SC2  828   5.968   6.073   3.092
    1TYR    SC3  829   5.911   5.911   3.300
    2LYS     BB  830   5.437   5.943   2.807
    2LYS    SC1  831   5.163   5.834   2.694
    2LYS    SC2  832   4.938   5.710   2.759
    3TYR     BB  833   5.482   6.251   2.712
    3TYR    SC1  834   5.202   6.352   2.628
    3TYR    SC2  835   5.093   6.585   2.547
    3TYR    SC3  836   4.945   6.410   2.690
    1TYR     BB  837   6.804   4.481   0.431
    1TYR    SC1  838   6.963   4.744   0.424
    1TYR    SC2  839   7.126   4.922   0.303
    1TYR    SC3  840   7.050   4.961   0.559
    2LYS     BB  841   6.575   4.481   0.225
    2LYS    SC1  842   6.324   4.622   0.367
    2LYS    SC2  843   6.074   4.548   0.391
    3TYR     BB  844   6.572   4.692   7.947
    3TYR    SC1  845   6.680   4.943   0.084
    3TYR    SC2  846   6.811   5.179   0.076
    3TYR    SC3  847   6.688   5.101   0.303
    1TYR     BB  848   4.925   2.564   1.710
    1TYR    SC1  849   4.989   2.660   1.440
    1TYR    SC2  850   4.902   2.838   1.257
    1TYR    SC3  851   5.154   2.741   1.243
    2LYS     BB  852   4.745   2.786   1.860
    2LYS    SC1  853   4.617   2.626   2.106
    2LYS    SC2  854   4.499   2.392   2.191
    3TYR     BB  855   4.816   3.114   1.759
    3TYR    SC1  856   5.092   3.067   1.648
    3TYR    SC2  857   5.301   3.112   1.483
    3TYR    SC3  858   5.319   2.923   1.675
    1TYR     BB  859   4.762   0.855   3.460
    1TYR    SC1  860   4.518   0.935   3.274
    1TYR    SC2  861   4.301   1.095   3.285
    1TYR    SC3  862   4.395   1.013   3.046
    2LYS     BB  863   4.648   1.051   3.739
    2LYS    SC1  864   4.791   0.878   3.970
    2LYS    SC2  865   5.041   0.804   4.046
    3TYR     BB  866   4.686   1.362   3.674
    3TYR    SC1  867   4.721   1.366   3.357
    3TYR    SC2  868   4.597   1.418   3.123
    3TYR    SC3  869   4.808   1.250   3.129
    1TYR     BB  870   5.998   5.858   0.835
    1TYR    SC1  871   5.726   5.755   0.731
    1TYR    SC2  872   5.528   5.791   0.551
    1TYR    SC3  873   5.568   5.548   0.661
    2LYS     BB  874   5.982   6.172   0.713
    2LYS    SC1  875   5.689   6.258   0.807
    2LYS    SC2  876   5.556   6.415   0.969
    3TYR     BB  877   6.013   6.185   0.422
    3TYR    SC1  878   5.777   6.049   0.277
    3TYR    SC2  879   5.529   6.059   0.172
    3TYR    SC3  880   5.699   5.863   0.098
    1TYR     BB  881   6.864   1.624   1.766
    1TYR    SC1  882   6.655   1.566   1.979
    1TYR    SC2  883   6.534   1.375   2.127
    1TYR    SC3  884   6.629   1.598   2.246
    2LYS     BB  885   7.139   1.510   1.990
    2LYS    SC1  886   7.403   1.374   1.842
    2LYS    SC2  887   7.516   1.280   1.613
    3TYR     BB  888   7.034   1.234   2.136
    3TYR    SC1  889   6.899   1.254   2.410
    3TYR    SC2  890   6.672   1.203   2.547
    3TYR    SC3  891   6.911   1.194   2.673
    1TYR     BB  892   4.346   5.535   5.990
    1TYR    SC1  893   4.071   5.525   6.110
    1TYR    SC2  894   3.950   5.396   6.313
    1TYR    SC3  895   3.876   5.648   6.250
    2LYS     BB  896   4.513   5.537   6.316
    2LYS    SC1  897   4.759   5.380   6.205
    2LYS    SC2  898   4.983   5.379   6.071
    3TYR     BB  899   4.387   5.423   6.572
    3TYR    SC1  900   4.474   5.508   6.860
    3TYR    SC2  901   4.657   5.556   7.052
    3TYR    SC3  902   4.416   5.678   7.061
    1TYR     BB  903   3.215   7.830   2.271
    1TYR    SC1  904   3.275   7.586   2.459
    1TYR    SC2  905   3.217   7.364   2.602
    1TYR    SC3  906   3.474   7.432   2.556
    2LYS     BB  907   3.538   7.939   2.220
    2LYS    SC1  908   3.504   0.224   2.380
    2LYS    SC2  909   3.420   0.485   2.394
    3TYR     BB  910   3.775   7.688   2.226
    3TYR    SC1  911   3.823   7.383   2.257
    3TYR    SC2  912   3.715   7.139   2.299
    3TYR    SC3  913   3.966   7.161   2.202
    1TYR     BB  914   0.271   4.592   5.099
    1TYR    SC1  915   7.992   4.729   5.179
    1TYR    SC2  916   7.728   4.739   5.122
    1TYR    SC3  917   7.832   4.902   5.311
    2LYS     BB  918   0.459   4.510   5.355
    2LYS    SC1  919   0.668   4.297   5.243
    2LYS    SC2  920   0.744   4.048   5.241
    3TYR     BB  921   0.292   4.319   5.578
    3TYR    SC1  922   0.000   4.387   5.509
    3TYR    SC2  923   7.751   4.488   5.533
    3TYR    SC3  924   7.811   4.327   5.325
    1TYR     BB  925   5.972   7.627   0.748
    1TYR    SC1  926   5.996   7.394   0.950
    1TYR    SC2  927   6.064   7.143   1.023
    1TYR    SC3  928   5.921   7.298   1.192
    2LYS     BB  929   6.293   7.741   0.773
    2LYS    SC1  930   6.261   7.975   0.999
    2LYS    SC2  931   6.263   0.256   1.028
    3TYR     BB  932   6.501   7.507   0.857
    3TYR    SC1  933   6.432   7.384   1.137
    3TYR    SC2  934   6.468   7.152   1.270
    3TYR    SC3  935   6.334   7.355   1.387
    1TYR     BB  936   3.134   3.000   7.047
    1TYR    SC1  937   3.176   2.782   6.818
    1TYR    SC2  938   3.215   2.703   6.563
    1TYR    SC3  939   3.196   2.519   6.760
    2LYS     BB  940   3.101   3.348   7.051
    2LYS    SC1  941   3.141   3.457   7.358
    2LYS    SC2  942   3.120   3.686   7.519
    3TYR     BB  943   3.233   3.461   6.763
    3TYR    SC1  944   3.110   3.246   6.576
    3TYR    SC2  945   2.914   3.071   6.511
    3TYR    SC3  946   3.126   3.105   6.347
    1TYR     BB  947   1.322   5.675   6.266
    1TYR    SC1  948   1.426   5.700   5.981
    1TYR    SC2  949   1.401   5.642   5.719
    1TYR    SC3  950   1.550   5.853   5.797
    2LYS     BB  951   1.386   5.965   6.408
    2LYS    SC1  952   1.117   6.079   6.546
    2LYS    SC2  953   0.908   6.216   6.485
    3TYR     BB  954   1.423   6.184   6.183
    3TYR    SC1  955   1.201   6.112   5.983
    3TYR    SC2  956   1.061   5.929   5.841
    3TYR    SC3  957   1.167   6.145   5.718
    1TYR     BB  958   4.230   3.677   3.683
    1TYR    SC1  959   4.378   3.443   3.568
    1TYR    SC2  960   4.444   3.238   3.405
    1TYR    SC3  961   4.620   3.325   3.590
    2LYS     BB  962   4.206   3.865   3.389
    2LYS    SC1  963   4.142   4.159   3.527
    2LYS    SC2  964   3.942   4.330   3.623
    3TYR     BB  965   4.480   3.864   3.260
    3TYR    SC1  966   4.680   3.625   3.254
    3TYR    SC2  967   4.804   3.405   3.159
    3TYR    SC3  968   4.923   3.555   3.349
    1TYR     BB  969   0.088   5.987   3.626
    1TYR    SC1  970   0.302   5.849   3.454
    1TYR    SC2  971   0.554   5.778   3.388
    1TYR    SC3  972   0.345   5.682   3.247
    2LYS     BB  973   7.861   5.778   3.655
    2LYS    SC1  974   7.717   5.729   3.937
    2LYS    SC2  975   7.475   5.729   4.061
    3TYR     BB  976   7.793   5.588   3.408
    3TYR    SC1  977   7.850   5.750   3.150
    3TYR    SC2  978   7.764   5.892   2.937
    3TYR    SC3  979   0.009   5.939   3.040
    1TYR     BB  980   4.415   7.280   6.492
    1TYR    SC1  981   4.267   7.131   6.263
    1TYR    SC2  982   4.038   7.084   6.127
    1TYR    SC3  983   4.269   6.969   6.047
    2LYS     BB  984   4.240   7.571   6.489
    2LYS    SC1  985   4.271   7.812   6.696
    2LYS    SC2  986   4.189   7.948   6.917
    3TYR     BB  987   3.993   7.566   6.326
    3TYR    SC1  988   3.867   7.834   6.256
    3TYR    SC2  989   3.614   7.926   6.269
    3TYR    SC3  990   3.800   0.062   6.128
    1TYR     BB  991   4.516   6.686   3.439
    1TYR    SC1  992   4.469   6.534   3.705
    1TYR    SC2  993   4.287   6.408   3.859
    1TYR    SC3  994   4.498   6.532   3.974
    2LYS     BB  995   4.661   6.551   3.192
    2LYS    SC1  996   4.480   6.656   2.941
    2LYS    SC2  997   4.383   6.916   2.954
    3TYR     BB  998   4.937   6.473   3.186
    3TYR    SC1  999   5.051   6.428   3.470
    3TYR    SC2 1000   5.159   6.380   3.713
    3TYR    SC3 1001   4.931   6.523   3.693
    1TYR     BB 1002   4.231   7.210   7.471
    1TYR    SC1 1003   4.229   7.198   7.163
    1TYR    SC2 1004   4.186   7.341   6.938
    1TYR    SC3 1005   4.236   7.076   6.923
    2LYS     BB 1006   4.419   7.475   7.508
    2LYS    SC1 1007   4.575   7.428   7.771
    2LYS    SC2 1008   4.561   7.457   0.030
    3TYR     BB 1009   4.425   7.671   7.293
    3TYR    SC1 1010   4.560   7.565   7.048
    3TYR    SC2 1011   4.695   7.543   6.815
    3TYR    SC3 1012   4.651   7.324   6.968
    1TYR     BB 1013   2.080   1.489   4.099
    1TYR    SC1 1014   2.301   1.691   4.107
    1TYR    SC2 1015   2.487   1.788   3.938
    1TYR    SC3 1016   2.392   1.943   4.137
    2LYS     BB 1017   2.120   1.362   3.808
    2LYS    SC1 1018   2.190   1.064   3.881
    2LYS    SC2 1019   2.054   0.838   3.899
    3TYR     BB 1020   2.173   1.561   3.575
    3TYR    SC1 1021   2.090   1.837   3.688
    3TYR    SC2 1022   1.951   2.057   3.618
    3TYR    SC3 1023   2.047   2.032   3.869
    1TYR     BB 1024   4.498   3.499   2.345
    1TYR    SC1 1025   4.470   3.650   2.078
    1TYR    SC2 1026   4.580   3.812   1.892
    1TYR    SC3 1027   4.314   3.820   1.938
    2LYS     BB 1028   4.461   3.190   2.247
    2LYS    SC1 1029   4.768   3.106   2.250
    2LYS    SC2 1030   4.902   2.975   2.412
    3TYR     BB 1031   4.354   3.084   1.988
    3TYR    SC1 1032   4.336   3.318   1.796
    3TYR    SC2 1033   4.469   3.465   1.612
    3TYR    SC3 1034   4.202   3.492   1.639
    1TYR     BB 1035   4.156   4.624   0.418
    1TYR    SC1 1036   3.939   4.838   0.454
    1TYR    SC2 1037   3.930   5.108   0.439
    1TYR    SC3 1038   3.703   4.967   0.480
    2LYS     BB 1039   4.287   4.707   0.129
    2LYS    SC1 1040   4.598   4.745   0.210
    2LYS    SC2 1041   4.744   4.834   0.413
    3TYR     BB 1042   4.104   4.909   7.966
    3TYR    SC1 1043   3.805   4.997   0.016
    3TYR    SC2 1044   3.625   5.185   7.944
    3TYR    SC3 1045   3.540   4.945   0.034
    1TYR     BB 1046   7.089   2.222   7.652
    1TYR    SC1 1047   7.252   2.214   7.381
    1TYR    SC2 1048   7.427   2.272   7.184
    1TYR    SC3 1049   7.438   2.033   7.308
    2LYS     BB 1050   7.391   2.106   7.834
    2LYS    SC1 1051   7.397   2.141   0.158
    2LYS    SC2 1052   7.494   2.295   0.368
    3TYR     BB 1053   7.628   2.324   7.735
    3TYR    SC1 1054   7.808   2.231   7.493
    3TYR    SC2 1055   7.900   2.287   7.245
    3TYR    SC3 1056   0.029   2.107   7.400
    1TYR     BB 1057   1.258   3.233   5.031
    1TYR    SC1 1058   0.950   3.183   5.065
    1TYR    SC2 1059   0.717   3.144   4.933
    1TYR    SC3 1060   0.732   3.095   5.198
    2LYS     BB 1061   1.389   2.943   5.140
    2LYS    SC1 1062   1.538   3.071   5.391
    2LYS    SC2 1063   1.728   3.156   5.543
    3TYR     BB 1064   1.153   2.741   5.236
    3TYR    SC1 1065   1.035   2.902   5.475
    3TYR    SC2 1066   0.866   3.003   5.659
    3TYR    SC3 1067   1.041   3.165   5.533
    1TYR     BB 1068   6.070   7.740   5.893
    1TYR    SC1 1069   6.128   7.465   5.751
    1TYR    SC2 1070   6.031   7.243   5.632
    1TYR    SC3 1071   6.292   7.257   5.696
    2LYS     BB 1072   5.767   7.826   5.770
    2LYS    SC1 1073   5.804   0.118   5.628
    2LYS    SC2 1074   5.810   0.396   5.622
    3TYR     BB 1075   5.618   7.621   5.568
    3TYR    SC1 1076   5.749   7.457   5.334
    3TYR    SC2 1077   5.805   7.208   5.247
    3TYR    SC3 1078   5.741   7.401   5.070
    1TYR     BB 1079   0.728   3.416   3.359
    1TYR    SC1 1080   0.711   3.115   3.317
    1TYR    SC2 1081   0.591   2.876   3.358
    1TYR    SC3 1082   0.719   2.924   3.126
    2LYS     BB 1083   0.403   3.476   3.218
    2LYS    SC1 1084   0.320   3.686   3.452
    2LYS    SC2 1085   0.431   3.703   3.702
    3TYR     BB 1086   0.184   3.230   3.292
    3TYR    SC1 1087   0.201   2.958   3.162
    3TYR    SC2 1088   0.181   2.689   3.174
    3TYR    SC3 1089   0.308   2.805   2.967
    1TYR     BB 1090   2.457   5.921   7.922
    1TYR    SC1 1091   2.517   6.219   7.902
    1TYR    SC2 1092   2.471   6.420   7.727
    1TYR    SC3 1093   2.444   6.463   7.992
    2LYS     BB 1094   2.405   5.842   7.592
    2LYS    SC1 1095   2.578   5.573   7.590
    2LYS    SC2 1096   2.740   5.482   7.785
    3TYR     BB 1097   2.285   5.947   7.348
    3TYR    SC1 1098   2.261   6.256   7.334
    3TYR    SC2 1099   2.319   6.484   7.201
    3TYR    SC3 1100   2.139   6.487   7.402
    4W        W 1101   3.947   5.849   1.810
    5W        W 1102   4.746   7.649   1.841
    6W        W 1103   5.819   0.496   3.715
    7W        W 1104   3.551   6.964   1.870
    8W        W 1105   2.507   3.324   3.040
    9W        W 1106   3.619   6.449   2.570
   10W        W 1107   3.195   3.608   6.256
   11W        W 1108   6.704   2.438   3.248
   12W        W 1109   1.037   6.589   6.177
   13W        W 1110   3.064   7.269   5.164
   14W        W 1111   7.360   3.153   3.359
   15W        W 1112   7.108   3.060   1.958
   16W        W 1113   3.613   2.100   0.857
   17W        W 1114   4.285   4.397   4.001
   18W        W 1115   4.109   3.865   0.910
   19W        W 1116   2.733   6.110   3.429
   20W        W 1117   3.998   5.505   1.407
   21W        W 1118   0.439   3.190   3.738
   22W        W 1119   2.002   5.955   5.145
   23W        W 1120   5.339   2.240   5.597
   24W        W 1121   3.149   0.167   5.484
   25W        W 1122   1.658   4.235   3.983
   26W        W 1123   3.184   2.372   5.560
   27W        W 1124   0.516   6.282   3.609
   28W        W 1125   3.079   1.057   5.356
   29W        W 1126   0.200   1.593   3.172
   30W        W 1127   0.673   5.038   4.673
   31W        W 1128   6.661   4.431   2.391
   32W        W 1129   7.693   6.621   5.779
   33W        W 1130   3.365   1.931   1.287
   34W        W 1131   3.607   3.964   2.274
   35W        W 1132   3.690   3.314   0.446
   36W        W 1133   2.455   0.247   5.344
   37W        W 1134   5.320   0.654   3.623
   38W        W 1135   7.006   6.921   2.541
   39W        W 1136   2.434   1.294   4.414
   40W        W 1137   3.831   4.469   6.877
   41W        W 1138   0.203   2.733   3.679
   42W        W 1139   4.826   1.923   6.252
   43W        W 1140   4.483   6.372   2.463
   44W        W 1141   4.896   5.870   6.228
   45W        W 1142   0.888   2.230   6.272
   46W        W 1143   4.447   0.438   7.655
   47W        W 1144   2.844   6.539   0.305
   48W        W 1145   1.226   3.552   4.165
   49W        W 1146   6.596   1.000   3.920
   50W        W 1147   1.626   0.797   3.594
   51W        W 1148   1.812   2.743   3.905
   52W        W 1149   1.350   6.686   1.558
   53W        W 1150   1.950   6.070   3.720
   54W        W 1151   5.033   5.614   0.748
   55W        W 1152   3.825   5.475   2.813
   56W        W 1153   2.109   4.244   2.552
   57W        W 1154   6.204   1.342   4.627
   58W        W 1155   0.414   1.892   7.656
   59W        W 1156   1.433   6.463   0.443
   60W        W 1157   2.432   6.964   1.414
   61W        W 1158   6.259   3.187   3.826
   62W        W 1159   3.288   3.492   4.393
   63W        W 1160   3.524   4.101   0.359
   64W        W 1161   4.529   0.524   2.128
   65W        W 1162   3.466   3.622   4.856
   66W        W 1163   6.347   5.927   2.809
   67W        W 1164   6.685   0.630   0.888
   68W        W 1165   3.182   0.845   7.237
   69W        W 1166   5.786   1.200   0.080
   70W        W 1167   7.403   2.796   1.062
   71W        W 1168   5.800   5.120   6.997
   72W        W 1169   2.353   2.346   1.982
   73W        W 1170   6.056   4.724   7.893
   74W        W 1171   5.793   5.497   6.554
   75W        W 1172   1.607   1.860   1.556
   76W        W 1173   0.009   1.056   7.587
   77W        W 1174   5.717   2.106   2.274
   78W        W 1175   1.945   2.557   7.038
   79W        W 1176   5.784   7.362   0.321
   80W        W 1177   1.449   4.426   3.065
   81W        W 1178   7.481   6.989   4.872
   82W        W 1179   1.016   0.990   0.828
   83W        W 1180   1.001   1.960   4.374
   84W        W 1181   2.096   0.566   6.722
   85W        W 1182   4.027   3.966   4.031
   86W        W 1183   2.501   5.175   5.908
   87W        W 1184   0.676   6.199   0.958
   88W        W 1185   5.549   6.807   2.559
   89W        W 1186   5.178   3.943   4.892
   90W        W 1187   7.992   3.492   5.654
   91W        W 1188   1.935   0.926   0.736
   92W        W 1189   5.808   4.217   1.301
   93W        W 1190   2.541   2.438   2.443
   94W        W 1191   6.164   0.493   2.545
   95W        W 1192   2.438   4.615   6.617
   96W        W 1193   0.781   5.504   1.507
   97W        W 1194   7.261   3.905   1.349
   98W        W 1195   3.716   4.596   4.769
   99W        W 1196   3.696   5.556   5.792
  100W        W 1197   5.651   6.888   1.115
  101W        W 1198   3.731   0.735   4.815
  102W        W 1199   0.173   3.116   5.962
  103W        W 1200   1.097   3.010   0.731
  104W        W 1201   1.763   0.107   2.513
  105W        W 1202   1.044   6.428   1.230
  106W        W 1203   1.951   0.680   5.951
  107W        W 1204   5.557   0.314   6.401
  108W        W 1205   0.919   1.023   0.315
  109W        W 1206   2.729   6.792   6.551
  110W        W 1207   2.744   0.575   0.372
  111W        W 1208   3.642   4.592   2.851
  112W        W 1209   3.475   4.533   7.246
  113W        W 1210   2.585   4.844   3.384
  114W        W 1211   3.173   4.419   1.605
  115W        W 1212   1.354   5.905   5.283
  116W        W 1213   3.972   4.876   5.112
  117W        W 1214   5.780   3.424   3.765
  118W        W 1215   2.798   2.843   2.297
  119W        W 1216   5.017   2.422   7.518
  120W        W 1217   2.384   2.503   1.449
  121W        W 1218   6.337   6.869   6.789
  122W        W 1219   4.557   5.385   2.799
  123W        W 1220   3.908   6.642   0.367
  124W        W 1221   4.410   3.790   0.493
  125W        W 1222   4.504   1.988   1.152
  126W        W 1223   1.321   2.222   5.980
  127W        W 1224   6.180   6.852   3.160
  128W        W 1225   3.264   4.359   3.087
  129W        W 1226   1.040   5.247   2.679
  130W        W 1227   2.890   3.571   1.433
  131W        W 1228   3.405   4.378   2.456
  132W        W 1229   4.295   5.023   2.250
  133W        W 1230   3.378   0.938   4.503
  134W        W 1231   4.047   3.237   1.232
  135W        W 1232   2.545   6.709   3.685
  136W        W 1233   5.166   7.290   6.979
  137W        W 1234   3.897   5.597   0.524
  138W        W 1235   0.110   4.527   6.021
  139W        W 1236   1.106   4.468   1.178
  140W        W 1237   0.077   1.097   0.467
  141W        W 1238   0.611   4.727   1.967
  142W        W 1239   4.773   4.903   6.157
  143W        W 1240   3.949   7.650   4.488
  144W        W 1241   0.659   1.280   6.878
  145W        W 1242   7.943   3.991   5.796
  146W        W 1243   7.099   1.900   6.015
  147W        W 1244   2.811   4.350   1.174
  148W        W 1245   0.812   5.762   6.247
  149W        W 1246   7.003   1.166   1.614
  150W        W 1247   1.293   0.854   6.498
  151W        W 1248   7.029   5.383   4.821
  152W        W 1249   4.280   7.748   2.073
  153W        W 1250   1.459   5.327   6.920
  154W        W 1251   5.567   0.747   7.942
  155W        W 1252   3.021   5.805   1.448
  156W        W 1253   2.297   5.752   2.635
  157W        W 1254   7.102   6.899   6.558
  158W        W 1255   3.873   1.791   4.609
  159W        W 1256   3.813   3.250   7.948
  160W        W 1257   0.350   7.092   2.967
  161W        W 1258   3.745   3.499   0.912
  162W        W 1259   0.101   0.822   0.022
  163W        W 1260   2.750   6.643   1.704
  164W        W 1261   6.023   1.386   7.666
  165W        W 1262   7.079   5.151   6.617
  166W        W 1263   7.648   5.641   4.910
  167W        W 1264   4.626   3.653   6.593
  168W        W 1265   3.194   4.712   4.730
  169W        W 1266   2.379   3.785   2.016
  170W        W 1267   1.404   1.500   5.152
  171W        W 1268   1.760   6.423   1.427
  172W        W 1269   1.009   2.176   3.431
  173W        W 1270   3.818   4.653   4.016
  174W        W 1271   2.993   1.472   1.222
  175W        W 1272   5.980   4.165   0.814
  176W        W 1273   4.332   0.792   1.751
  177W        W 1274   1.269   2.651   2.463
  178W        W 1275   0.348   2.276   5.075
  179W        W 1276   2.776   0.630   4.880
  180W        W 1277   3.092   6.113   0.156
  181W        W 1278   0.316   2.168   1.642
  182W        W 1279   1.151   0.526   5.333
  183W        W 1280   5.504   7.857   5.121
  184W        W 1281   6.757   2.767   0.331
  185W        W 1282   6.013   2.170   5.025
  186W        W 1283   3.575   4.185   3.961
  187W        W 1284   2.505   4.631   0.861
  188W        W 1285   5.668   6.460   4.858
  189W        W 1286   2.997   2.533   7.236
  190W        W 1287   0.856   4.605   0.250
  191W        W 1288   3.678   2.606   1.739
  192W        W 1289   1.193   3.509   2.856
  193W        W 1290   7.286   1.022   7.272
  194W        W 1291   3.870   3.441   5.430
  195W        W 1292   2.399   4.956   7.187
  196W        W 1293   4.410   6.472   6.018
  197W        W 1294   0.429   1.103   3.309
  198W        W 1295   5.511   6.501   4.182
  199W        W 1296   5.999   1.522   6.324
  200W        W 1297   5.717   0.636   4.581
  201W        W 1298   7.314   6.026   5.027
  202W        W 1299   5.634   7.966   6.758
  203W        W 1300   0.998   6.331   1.735
  204W        W 1301   0.845   4.095   0.327
  205W        W 1302   2.376   6.247   4.966
  206W        W 1303   2.323   2.457   4.039
  207W        W 1304   1.154   6.906   1.122
  208W        W 1305   7.786   6.652   4.082
  209W        W 1306   3.597   1.815   6.115
  210W        W 1307   1.249   4.830   2.860
  211W        W 1308   3.651   1.138   4.090
  212W        W 1309   1.614   4.705   1.836
  213W        W 1310   0.801   1.536   4.543
  214W        W 1311   6.157   7.707   0.270
  215W        W 1312   6.010   3.160   0.370
  216W        W 1313   2.851   5.965   4.778
  217W        W 1314   3.754   3.844   3.615
  218W        W 1315   2.855   2.202   1.993
  219W        W 1316   2.836   6.338   5.152
  220W        W 1317   7.818   5.728   4.445
  221W        W 1318   6.747   1.870   0.500
  222W        W 1319   3.421   1.501   6.476
  223W        W 1320   5.749   3.229   6.437
  224W        W 1321   7.756   2.222   6.758
  225W        W 1322   1.744   4.314   5.344
  226W        W 1323   2.041   4.741   1.001
  227W        W 1324   4.601   6.124   2.912
  228W        W 1325   1.191   2.530   7.947
  229W        W 1326   2.602   5.211   4.148
  230W        W 1327   2.340   0.374   3.158
  231W        W 1328   6.411   3.556   4.777
  232W        W 1329   5.043   0.557   5.737
  233W        W 1330   2.393   6.876   5.670
  234W        W 1331   1.388   2.945   3.691
  235W        W 1332   2.246   2.689   4.524
  236W        W 1333   1.417   3.811   3.782
  237W        W 1334   1.665   4.987   0.285
  238W        W 1335   5.892   1.123   6.008
  239W        W 1336   6.411   4.207   3.093
  240W        W 1337   2.394   4.481   3.773
  241W        W 1338   1.576   3.127   7.878
  242W        W 1339   1.078   0.687   1.924
  243W        W 1340   3.867   4.725   0.952
  244W        W 1341   3.071   4.226   3.929
  245W        W 1342   4.769   6.033   1.530
  246W        W 1343   1.673   1.915   5.277
  247W        W 1344   1.849   4.291   0.935
  248W        W 1345   2.667   3.392   4.988
  249W        W 1346   1.106   4.397   2.628
  250W        W 1347   5.206   7.317   1.210
  251W        W 1348   5.832   4.999   5.189
  252W        W 1349   5.486   3.384   2.744
  253W        W 1350   3.668   6.665   6.626
  254W        W 1351   5.409   4.856   2.872
  255W        W 1352   5.144   1.141   3.672
  256W        W 1353   5.636   4.516   6.649
  257W        W 1354   2.044   4.977   7.946
  258W        W 1355   7.805   7.483   3.670
  259W        W 1356   0.808   4.426   1.613
  260W        W 1357   6.664   5.279   3.633
  261W        W 1358   3.997   5.624   4.079
  262W        W 1359   7.944   5.392   5.252
  263W        W 1360   7.552   6.155   4.332
  264W        W 1361   4.253   5.923   3.717
  265W        W 1362   5.154   4.591   7.331
  266W        W 1363   1.475   3.347   1.494
  267W        W 1364   1.666   3.948   5.676
  268W        W 1365   6.820   7.366   2.742
  269W        W 1366   5.599   3.824   7.811
  270W        W 1367   6.401   6.051   5.064
  271W        W 1368   2.996   4.403   7.089
  272W        W 1369   4.429   3.554   1.141
  273W        W 1370   5.599   6.200   7.678
  274W        W 1371   2.793   4.519   2.994
  275W        W 1372   3.860   3.750   1.334
  276W        W 1373   1.638   5.488   0.474
  277W        W 1374   0.606   2.422   3.144
  278W        W 1375   2.530   2.787   2.874
  279W        W 1376   4.176   7.550   0.348
  280W        W 1377   0.644   6.357   0.472
  281W        W 1378   1.978   1.553   1.045
  282W        W 1379   1.836   2.216   7.418
  283W        W 1380   0.407   4.865   2.420
  284W        W 1381   6.719   5.554   3.203
  285W        W 1382   0.835   4.998   1.543
  286W        W 1383   0.961   5.584   1.005
  287W        W 1384   4.590   6.695   4.497
  288W        W 1385   0.148   3.926   1.871
  289W        W 1386   2.897   2.139   3.363
  290W        W 1387   6.372   1.032   0.928
  291W        W 1388   0.912   3.840   3.838
  292W        W 1389   1.825   2.190   6.094
  293W        W 1390   3.303   3.783   1.666
  294W        W 1391   4.320   6.942   0.989
  295W        W 1392   4.764   2.693   0.788
  296W        W 1393   6.764   3.920   1.082
  297W        W 1394   2.713   2.442   5.900
  298W        W 1395   6.141   0.815   6.802
  299W        W 1396   0.667   3.839   7.109
  300W        W 1397   7.069   6.774   4.616
  301W        W 1398   4.717   4.176   6.883
  302W        W 1399   2.559   4.465   2.469
  303W        W 1400   5.433   3.690   2.328
  304W        W 1401   5.942   4.711   3.822
  305W        W 1402   4.928   5.613   1.759
  306W        W 1403   6.608   0.991   0.455
  307W        W 1404   1.846   1.474   2.741
  308W        W 1405   2.232   5.246   2.625
  309W        W 1406   3.270   0.675   5.063
  310W        W 1407   7.027   7.003   5.082
  311W        W 1408   2.147   6.857   3.339
  312W        W 1409   6.493   1.566   7.731
  313W        W 1410   0.565   2.513   7.072
  314W        W 1411   2.857   1.269   0.124
  315W        W 1412   7.218   5.406   5.648
  316W        W 1413   3.196   5.652   7.419
  317W        W 1414   6.977   3.470   1.206
  318W        W 1415   6.229   7.215   0.530
  319W        W 1416   6.346   3.819   0.819
  320W        W 1417   6.445   6.373   0.726
  321W        W 1418   1.137   4.879   1.930
  322W        W 1419   5.196   2.218   3.515
  323W        W 1420   3.368   5.620   2.593
  324W        W 1421   6.428   3.911   6.379
  325W        W 1422   2.305   6.497   6.002
  326W        W 1423   1.211   2.320   5.482
  327W        W 1424   1.580   4.197   2.577
  328W        W 1425   2.365   1.772   4.642
  329W        W 1426   6.173   1.380   6.801
  330W        W 1427   1.636   6.190   2.298
  331W        W 1428   7.345   4.905   5.453
  332W        W 1429   5.870   0.933   5.541
  333W        W 1430   3.008   3.875   7.042
  334W        W 1431   7.265   3.474   1.642
  335W        W 1432   5.940   6.522   7.471
  336W        W 1433   0.102   3.134   1.142
  337W        W 1434   2.753   5.004   1.082
  338W        W 1435   5.659   2.916   2.058
  339W        W 1436   0.233   4.053   5.145
  340W        W 1437   4.878   5.591   7.813
  341W        W 1438   4.569   2.974   4.366
  342W        W 1439   1.316   4.841   1.448
  343W        W 1440   3.099   6.117   6.481
  344W        W 1441   6.281   1.648   1.655
  345W        W 1442   5.581   5.525   1.158
  346W        W 1443   5.561   1.858   3.416
  347W        W 1444   4.937   5.167   6.957
  348W        W 1445   4.508   3.051   0.473
  349W        W 1446   1.032   5.260   6.332
  350W        W 1447   4.615   1.543   2.356
  351W        W 1448   0.466   1.963   4.285
  352W        W 1449   4.159   5.105   5.690
  353W        W 1450   5.116   1.430   0.684
  354W        W 1451   2.930   7.904   5.880
  355W        W 1452   6.189   2.307   2.305
  356W        W 1453   2.576   5.374   5.209
  357W        W 1454   2.289   3.157   0.680
  358W        W 1455   2.964   3.717   4.714
  359W        W 1456   5.895   6.126   7.138
  360W        W 1457   7.012   5.895   1.686
  361W        W 1458   4.674   3.739   2.777
  362W        W 1459   7.589   3.481   6.750
  363W        W 1460   3.960   4.924   3.582
  364W        W 1461   4.890   0.322   1.235
  365W        W 1462   1.071   1.898   3.014
  366W        W 1463   6.274   4.755   5.199
  367W        W 1464   1.087   6.114   0.295
  368W        W 1465   2.271   5.170   1.128
  369W        W 1466   2.284   4.293   2.051
  370W        W 1467   0.994   0.631   2.817
  371W        W 1468   0.007   1.382   7.983
  372W        W 1469   5.711   7.507   6.234
  373W        W 1470   0.904   2.929   2.195
  374W        W 1471   1.901   4.701   3.896
  375W        W 1472   6.920   6.556   0.847
  376W        W 1473   6.310   3.941   2.308
  377W        W 1474   3.432   1.433   3.733
  378W        W 1475   0.171   3.536   1.436
  379W        W 1476   0.833   0.890   5.167
  380W        W 1477   5.065   6.802   7.132
  381W        W 1478   5.184   4.639   1.982
  382W        W 1479   1.618   4.460   3.535
  383W        W 1480   5.523   7.051   1.563
  384W        W 1481   1.802   2.971   3.409
  385W        W 1482   0.495   2.447   4.527
  386W        W 1483   2.729   4.060   7.416
  387W        W 1484   0.706   7.112   3.388
  388W        W 1485   1.290   3.778   4.602
  389W        W 1486   2.693   7.264   5.806
  390W        W 1487   3.654   2.118   5.721
  391W        W 1488   0.843   2.139   5.776
  392W        W 1489   2.948   6.591   3.370
  393W        W 1490   2.518   3.609   0.688
  394W        W 1491   7.390   2.360   5.061
  395W        W 1492   4.571   0.923   1.288
  396W        W 1493   4.172   1.643   5.002
  397W        W 1494   6.014   2.354   7.326
  398W        W 1495   2.556   1.031   0.505
  399W        W 1496   3.630   1.888   0.390
  400W        W 1497   6.500   4.993   5.596
  401W        W 1498   1.144   1.961   3.882
  402W        W 1499   7.994   2.064   2.041
  403W        W 1500   2.603   1.812   7.029
  404W        W 1501   2.731   1.329   3.064
  405W        W 1502   4.559   3.358   7.314
  406W        W 1503   2.818   4.859   6.903
  407W        W 1504   5.241   3.231   2.111
  408W        W 1505   0.704   6.235   6.002
  409W        W 1506   3.320   6.571   3.005
  410W        W 1507   6.979   7.879   6.782
  411W        W 1508   6.909   1.417   6.931
  412W        W 1509   0.719   2.319   1.357
  413W        W 1510   6.451   4.732   6.587
  414W        W 1511   1.798   4.937   6.043
  415W        W 1512   6.105   0.307   6.609
  416W        W 1513   5.351   2.960   5.294
  417W        W 1514   2.481   5.048   7.671
  418W        W 1515   6.187   6.507   4.935
  419W        W 1516   1.150   2.104   0.241
  420W        W 1517   2.700   3.462   6.199
  421W        W 1518   5.842   4.096   4.367
  422W        W 1519   4.727   6.207   4.453
  423W        W 1520   6.707   1.656   2.757
  424W        W 1521   0.818   1.120   7.344
  425W        W 1522   3.249   4.683   7.663
  426W        W 1523   2.850   0.631   1.293
  427W        W 1524   6.980   2.301   0.402
  428W        W 1525   1.563   0.600   6.869
  429W        W 1526   4.794   7.052   1.085
  430W        W 1527   3.409   4.170   6.895
  431W        W 1528   5.973   3.058   5.646
  432W        W 1529   4.833   3.464   4.030
  433W        W 1530   2.311   1.984   1.125
  434W        W 1531   5.673   7.423   6.876
  435W        W 1532   0.496   3.283   2.376
  436W        W 1533   5.216   1.529   3.156
  437W        W 1534   7.447   3.614   3.156
  438W        W 1535   0.321   1.111   7.207
  439W        W 1536   3.321   1.830   2.015
  440W        W 1537   1.655   2.600   7.727
  441W        W 1538   5.743   1.778   0.436
  442W        W 1539   6.479   6.481   5.374
  443W        W 1540   7.762   1.183   7.134
  444W        W 1541   6.781   5.974   2.446
  445W        W 1542   1.004   6.642   0.221
  446W        W 1543   2.895   4.495   4.321
  447W        W 1544   0.386   7.262   6.074
  448W        W 1545   5.050   2.300   0.004
  449W        W 1546   2.820   2.176   4.022
  450W        W 1547   0.190   1.735   1.424
  451W        W 1548   2.659   3.490   2.335
  452W        W 1549   5.821   6.884   0.091
  453W        W 1550   7.045   2.828   5.700
  454W        W 1551   2.521   2.833   3.765
  455W        W 1552   2.624   3.960   5.010
  456W        W 1553   6.576   2.681   5.565
  457W        W 1554   1.306   3.480   0.704
  458W        W 1555   1.427   1.649   2.470
  459W        W 1556   7.029   1.843   4.438
  460W        W 1557   7.238   3.828   5.246
  461W        W 1558   6.800   2.632   0.830
  462W        W 1559   1.417   5.585   2.627
  463W        W 1560   3.080   7.658   5.472
  464W        W 1561   4.243   4.512   4.899
  465W        W 1562   6.265   7.146   1.906
  466W        W 1563   6.614   7.658   5.794
  467W        W 1564   2.308   5.264   1.660
  468W        W 1565   1.039   4.012   1.408
  469W        W 1566   6.302   7.043   0.053
  470W        W 1567   2.409   2.753   5.615
  471W        W 1568   1.870   2.217   3.163
  472W        W 1569   2.818   5.251   7.314
  473W        W 1570   2.230   2.294   5.784
  474W        W 1571   6.468   2.277   3.689
  475W        W 1572   2.257   6.827   4.185
  476W        W 1573   4.826   0.988   4.491
  477W        W 1574   3.162   1.538   2.949
  478W        W 1575   0.192   6.636   5.320
  479W        W 1576   7.439   2.049   3.563
  480W        W 1577   3.452   3.535   2.067
  481W        W 1578   5.068   3.287   7.379
  482W        W 1579   3.338   0.645   5.578
  483W        W 1580   1.941   1.889   4.387
  484W        W 1581   1.505   4.771   0.974
  485W        W 1582   3.512   6.896   0.563
  486W        W 1583   7.179   7.656   2.995
  487W        W 1584   0.469   3.435   6.880
  488W        W 1585   7.077   4.479   2.704
  489W        W 1586   0.715   2.064   7.277
  490W        W 1587   4.462   3.828   7.970
  491W        W 1588   4.834   2.783   6.597
  492W        W 1589   6.376   7.442   6.197
  493W        W 1590   4.597   3.980   0.930
  494W        W 1591   4.930   7.562   7.389
  495W        W 1592   6.877   7.433   7.119
  496W        W 1593   7.915   5.976   1.181
  497W        W 1594   7.450   0.780   6.391
  498W        W 1595   5.766   5.976   5.016
  499W        W 1596   7.872   7.175   4.086
  500W        W 1597   5.641   7.845   0.420
  501W        W 1598   4.420   2.943   1.483
  502W        W 1599   2.762   3.669   2.777
  503W        W 1600   3.169   1.547   5.201
  504W        W 1601   5.909   1.065   1.594
  505W        W 1602   1.183   5.671   0.558
  506W        W 1603   4.077   1.035   1.361
  507W        W 1604   5.503   4.198   7.454
  508W        W 1605   4.114   1.261   5.845
  509W        W 1606   3.962   4.270   1.182
  510W        W 1607   4.843   7.601   0.423
  511W        W 1608   1.504   6.188   6.856
  512W        W 1609   7.149   4.301   6.201
  513W        W 1610   7.650   4.603   2.276
  514W        W 1611   0.379   3.723   2.712
  515W        W 1612   0.283   3.556   0.912
  516W        W 1613   2.163   6.057   6.861
  517W        W 1614   0.811   3.514   0.719
  518W        W 1615   6.448   2.024   3.187
  519W        W 1616   3.947   1.258   7.301
  520W        W 1617   3.133   1.265   5.832
  521W        W 1618   5.456   3.517   1.276
  522W        W 1619   7.965   4.048   6.313
  523W        W 1620   0.116   6.121   6.829
  524W        W 1621   5.632   4.724   1.234
  525W        W 1622   6.146   5.357   7.331
  526W        W 1623   5.225   5.216   7.738
  527W        W 1624   4.794   5.456   5.330
  528W        W 1625   0.181   2.119   2.989
  529W        W 1626   3.592   3.987   0.959
  530W        W 1627   0.288   4.366   1.581
  531W        W 1628   0.405   4.104   6.046
  532W        W 1629   1.503   0.899   6.052
  533W        W 1630   2.814   2.012   2.519
  534W        W 1631   7.191   6.099   2.138
  535W        W 1632   5.629   0.766   0.493
  536W        W 1633   2.895   6.826   4.970
  537W        W 1634   1.894   2.676   5.916
  538W        W 1635   2.347   0.871   4.703
  539W        W 1636   4.341   2.571   0.310
  540W        W 1637   5.118   5.099   6.466
  541W        W 1638   0.565   0.777   4.163
  542W        W 1639   4.470   5.884   5.244
  543W        W 1640   2.421   0.594   5.711
  544W        W 1641   7.244   4.531   5.762
  545W        W 1642   7.919   5.644   6.094
  546W        W 1643   4.123   7.175   7.978
  547W        W 1644   0.604   5.559   4.685
  548W        W 1645   2.363   0.966   6.056
  549W        W 1646   2.452   6.693   5.199
  550W        W 1647   7.189   0.886   1.223
  551W        W 1648   2.064   3.139   2.878
  552W        W 1649   2.045   5.241   7.472
  553W        W 1650   4.244   0.871   5.557
  554W        W 1651   4.926   5.036   3.012
  555W        W 1652   7.124   3.021   1.417
  556W        W 1653   2.926   6.031   5.571
  557W        W 1654   1.461   1.720   1.081
  558W        W 1655   3.403   7.295   1.473
  559W        W 1656   4.376   3.764   7.017
  560W        W 1657   1.020   6.474   4.497
  561W        W 1658   3.626   4.507   5.972
  562W        W 1659   5.658   1.329   1.210
  563W        W 1660   6.482   4.300   5.174
  564W        W 1661   3.627   3.350   6.325
  565W        W 1662   4.505   6.849   1.472
  566W        W 1663   2.393   3.080   4.213
  567W        W 1664   5.433   7.168   6.507
  568W        W 1665   1.370   5.205   5.949
  569W        W 1666   5.203   6.453   6.111
  570W        W 1667   6.806   1.084   7.868
  571W        W 1668   2.979   4.550   6.503
  572W        W 1669   6.022   1.107   7.212
  573W        W 1670   6.197   0.609   5.334
  574W        W 1671   4.642   3.117   4.873
  575W        W 1672   7.453   6.989   4.327
  576W        W 1673   5.030   1.825   1.026
  577W        W 1674   6.503   4.591   4.763
  578W        W 1675   2.700   5.791   3.874
  579W        W 1676   7.342   1.071   0.750
  580W        W 1677   6.396   2.931   0.676
  581W        W 1678   0.348   7.033   6.518
  582W        W 1679   0.139   1.938   6.018
  583W        W 1680   7.287   4.037   2.897
  584W        W 1681   2.435   0.929   6.561
  585W        W 1682   1.030   5.489   7.208
  586W        W 1683   5.584   1.109   7.555
  587W        W 1684   4.945   5.256   4.870
  588W        W 1685   3.915   3.957   6.908
  589W        W 1686   6.048   3.393   5.107
  590W        W 1687   5.950   6.505   3.923
  591W        W 1688   1.878   1.718   3.187
  592W        W 1689   7.307   3.430   6.331
  593W        W 1690   4.657   4.428   7.441
  594W        W 1691   5.302   5.361   2.882
  595W        W 1692   3.209   4.684   5.578
  596W        W 1693   0.142   2.572   6.793
  597W        W 1694   3.783   5.024   6.017
  598W        W 1695   0.787   2.814   7.787
  599W        W 1696   2.481   6.150   4.465
  600W        W 1697   4.947   7.774   7.902
  601W        W 1698   5.314   2.918   7.169
  602W        W 1699   6.463   1.566   7.198
  603W        W 1700   4.695   5.055   4.411
  604W        W 1701   7.447   6.838   5.375
  605W        W 1702   6.611   5.527   5.542
  606W        W 1703   3.375   7.937   6.714
  607W        W 1704   3.177   1.027   1.355
  608W        W 1705   2.773   2.515   4.857
  609W        W 1706   6.954   7.203   3.723
  610W        W 1707   5.510   4.888   1.708
  611W        W 1708   4.011   5.827   3.276
  612W        W 1709   1.256   1.327   0.520
  613W        W 1710   3.740   6.169   4.949
  614W        W 1711   7.154   0.935   5.975
  615W        W 1712   0.215   6.874   4.346
  616W        W 1713   0.432   6.195   3.115
  617W        W 1714   4.796   7.576   0.955
  618W        W 1715   3.282   6.456   4.238
  619W        W 1716   5.338   5.583   6.361
  620W        W 1717   0.524   1.346   1.572
  621W        W 1718   6.849   4.270   1.440
  622W        W 1719   6.805   6.332   5.775
  623W        W 1720   5.238   1.707   6.474
  624W        W 1721   1.692   5.179   3.867
  625W        W 1722   1.937   3.157   1.385
  626W        W 1723   1.402   3.932   7.057
  627W        W 1724   1.215   3.504   6.274
  628W        W 1725   4.967   5.241   2.503
  629W        W 1726   4.907   2.497   2.486
  630W        W 1727   5.622   7.272   7.839
  631W        W 1728   1.613   2.686   0.236
  632W        W 1729   0.981   5.136   6.825
  633W        W 1730   7.938   6.357   1.528
  634W        W 1731   6.850   5.906   4.821
  635W        W 1732   4.848   3.900   4.517
  636W        W 1733   3.245   4.867   6.115
  637W        W 1734   1.986   6.005   3.146
  638W        W 1735   4.532   6.711   5.018
  639W        W 1736   2.969   5.032   5.069
  640W        W 1737   3.549   2.636   2.359
  641W        W 1738   6.371   0.930   2.265
  642W        W 1739   2.675   5.862   6.642
  643W        W 1740   3.692   0.832   7.190
  644W        W 1741   5.101   1.243   2.265
  645W        W 1742   4.380   4.534   2.355
  646W        W 1743   5.430   5.716   3.307
  647W        W 1744   3.569   2.681   4.890
  648W        W 1745   3.318   3.201   0.831
  649W        W 1746   3.313   5.369   5.234
  650W        W 1747   3.299   6.113   2.787
  651W        W 1748   3.926   4.114   6.261
  652W        W 1749   1.659   1.437   3.533
  653W        W 1750   0.226   3.415   1.937
  654W        W 1751   4.788   2.288   4.926
  655W        W 1752   2.794   3.676   6.638
  656W        W 1753   6.416   1.166   1.693
  657W        W 1754   4.817   2.729   0.226
  658W        W 1755   6.029   4.221   3.889
  659W        W 1756   5.501   6.239   3.222
  660W        W 1757   4.447   4.857   7.601
  661W        W 1758   1.168   5.359   7.761
  662W        W 1759   1.598   4.130   6.161
  663W        W 1760   5.269   6.075   4.089
  664W        W 1761   5.599   4.372   3.631
  665W        W 1762   6.817   6.036   0.818
  666W        W 1763   7.043   3.088   0.855
  667W        W 1764   7.503   7.877   3.484
  668W        W 1765   2.996   4.181   2.674
  669W        W 1766   7.002   2.811   3.397
  670W        W 1767   6.104   5.094   6.593
  671W        W 1768   4.764   2.013   2.492
  672W        W 1769   3.089   7.484   6.780
  673W        W 1770   0.441   1.729   2.741
  674W        W 1771   0.796   5.097   0.099
  675W        W 1772   3.489   0.854   7.663
  676W        W 1773   1.010   3.264   1.163
  677W        W 1774   1.345   5.239   0.797
  678W        W 1775   0.118   1.447   6.882
  679W        W 1776   5.698   0.317   0.220
  680W        W 1777   7.535   6.571   4.595
  681W        W 1778   4.986   7.034   1.620
  682W        W 1779   4.164   7.647   2.560
  683W        W 1780   2.728   2.262   6.769
  684W        W 1781   0.665   4.201   1.158
  685W        W 1782   5.864   5.669   4.606
  686W        W 1783   2.793   1.540   5.559
  687W        W 1784   6.283   6.432   1.641
  688W        W 1785   5.665   2.350   3.212
  689W        W 1786   4.080   2.159   4.298
  690W        W 1787   0.463   1.192   0.124
  691W        W 1788   5.390   5.671   1.932
  692W        W 1789   0.680   2.547   5.501
  693W        W 1790   2.998   1.836   1.636
  694W        W 1791   7.145   3.295   5.872
  695W        W 1792   0.775   2.441   2.334
  696W        W 1793   5.681   2.594   7.028
  697W        W 1794   1.897   3.699   3.721
  698W        W 1795   4.282   4.239   7.155
  699W        W 1796   5.523   4.027   2.730
  700W        W 1797   5.843   7.459   4.211
  701W        W 1798   3.437   6.026   1.037
  702W        W 1799   4.094   3.822   7.443
  703W        W 1800   2.437   6.237   3.845
  704W        W 1801   4.208   0.270   1.822
  705W        W 1802   5.318   2.716   3.303
  706W        W 1803   4.883   2.038   7.184
  707W        W 1804   3.437   3.959   2.781
  708W        W 1805   0.858   1.569   1.893
  709W        W 1806   1.615   6.380   3.911
  710W        W 1807   1.417   1.540   3.040
  711W        W 1808   7.312   1.759   1.565
  712W        W 1809   2.169   3.937   0.817
  713W        W 1810   2.749   2.611   6.397
  714W        W 1811   4.610   0.185   6.705
  715W        W 1812   7.601   2.030   5.891
  716W        W 1813   7.056   2.540   4.314
  717W        W 1814   3.620   1.016   1.585
  718W        W 1815   6.216   3.885   5.104
  719W        W 1816   2.672   1.925   0.705
  720W        W 1817   6.474   6.885   0.846
  721W        W 1818   3.430   7.823   5.822
  722W        W 1819   5.821   1.497   4.356
  723W        W 1820   6.877   5.619   6.383
  724W        W 1821   4.665   5.642   3.678
  725W        W 1822   4.116   4.655   5.930
  726W        W 1823   5.322   1.076   4.404
  727W        W 1824   3.871   7.891   1.793
  728W        W 1825   3.102   0.560   2.805
  729W        W 1826   1.979   2.199   1.446
  730W        W 1827   3.161   5.665   4.479
  731W        W 1828   1.251   6.104   4.086
  732W        W 1829   5.781   4.287   7.902
  733W        W 1830   2.749   5.785   7.178
  734W        W 1831   3.819   1.628   5.659
  735W        W 1832   3.865   4.650   2.398
  736W        W 1833   3.321   4.084   3.511
  737W        W 1834   4.721   0.992   2.028
  738W        W 1835   0.883   4.927   3.799
  739W        W 1836   6.550   2.368   6.687
  740W        W 1837   6.340   0.166   2.898
  741W        W 1838   6.676   7.764   3.075
  742W        W 1839   1.474   6.746   7.039
  743W        W 1840   5.397   1.753   1.388
  744W        W 1841   1.252   1.351   7.156
  745W        W 1842   3.716   6.256   3.089
  746W        W 1843   0.997   6.005   7.060
  747W        W 1844   3.605   0.952   2.295
  748W        W 1845   7.854   0.035   6.575
  749W        W 1846   5.576   3.438   7.268
  750W        W 1847   4.583   1.072   5.910
  751W        W 1848   1.906   6.499   6.916
  752W        W 1849   6.337   6.262   6.857
  753W        W 1850   4.535   2.268   1.641
  754W        W 1851   4.443   5.020   1.763
  755W        W 1852   3.829   4.389   5.218
  756W        W 1853   4.511   4.036   2.381
  757W        W 1854   7.854   6.192   5.346
  758W        W 1855   6.656   0.892   1.339
  759W        W 1856   6.026   7.829   6.443
  760W        W 1857   3.749   2.182   4.897
  761W        W 1858   5.130   0.264   6.683
  762W        W 1859   1.372   2.157   0.741
  763W        W 1860   6.115   7.346   6.614
  764W        W 1861   3.339   6.522   2.069
  765W        W 1862   1.581   2.512   3.480
  766W        W 1863   6.507   2.572   5.072
  767W        W 1864   6.610   6.019   1.399
  768W        W 1865   6.175   1.870   5.449
  769W        W 1866   6.743   6.595   4.966
  770W        W 1867   1.918   5.643   7.139
  771W        W 1868   0.860   5.282   0.602
  772W        W 1869   3.743   6.317   7.395
  773W        W 1870   7.361   6.298   5.471
  774W        W 1871   3.811   5.086   2.142
  775W        W 1872   2.725   1.835   2.981
  776W        W 1873   2.870   6.901   5.479
  777W        W 1874   5.898   3.721   2.071
  778W        W 1875   3.895   6.726   2.978
  779W        W 1876   2.361   5.433   2.159
  780W        W 1877   1.585   6.809   3.631
  781W        W 1878   5.433   4.063   3.234
  782W        W 1879   6.205   6.190   1.164
  783W        W 1880   5.566   3.913   0.949
  784W        W 1881   6.864   7.867   2.612
  785W        W 1882   7.311   2.455   6.673
  786W        W 1883   3.912   1.351   2.374
  787W        W 1884   3.540   2.668   7.163
  788W        W 1885   6.940   3.902   6.437
  789W        W 1886   4.740   1.859   0.596
  790W        W 1887   5.827   1.609   4.912
  791W        W 1888   4.019   1.565   6.222
  792W        W 1889   2.301   5.630   6.025
  793W        W 1890   5.453   4.401   1.610
  794W        W 1891   7.658   3.249   5.317
  795W        W 1892   5.574   3.793   5.690
  796W        W 1893   2.764   0.816   7.543
  797W        W 1894   0.889   2.930   3.767
  798W        W 1895   3.632   0.222   5.608
  799W        W 1896   2.695   6.345   6.292
  800W        W 1897   2.627   3.275   6.902
  801W        W 1898   2.865   7.984   6.785
  802W        W 1899   6.301   0.194   5.716
  803W        W 1900   5.595   6.010   6.271
  804W        W 1901   6.695   2.204   4.325
  805W        W 1902   1.842   4.484   2.210
  806W        W 1903   3.574   5.299   7.404
  807W        W 1904   4.716   7.713   6.360
  808W        W 1905   1.294   2.725   1.974
  809W        W 1906   4.901   2.311   1.080
  810W        W 1907   3.804   1.308   0.411
  811W        W 1908   7.347   3.222   4.887
  812W        W 1909   3.958   2.953   7.014
  813W        W 1910   0.956   0.878   6.113
  814W        W 1911   2.096   1.472   6.772
  815W        W 1912   3.375   3.685   0.612
  816W        W 1913   5.686   2.087   7.620
  817W        W 1914   1.732   4.960   7.184
  818W        W 1915   4.763   4.111   6.380
  819W        W 1916   5.701   0.587   6.795
  820W        W 1917   6.594   6.848   1.653
  821W        W 1918   4.010   1.268   5.339
  822W        W 1919   0.589   5.382   6.563
  823W        W 1920   3.948   7.843   0.885
  824W        W 1921   2.368   0.199   0.215
  825W        W 1922   0.868   1.312   5.865
  826W        W 1923   6.744   6.434   2.714
  827W        W 1924   3.800   1.816   6.595
  828W        W 1925   5.370   4.689   6.218
  829W        W 1926   1.017   3.293   7.773
  830W        W 1927   1.543   0.901   2.002
  831W        W 1928   5.812   7.542   7.393
  832W        W 1929   4.538   0.531   5.806
  833W        W 1930   5.375   5.237   5.146
  834W        W 1931   3.372   4.824   2.232
  835W        W 1932   5.805   2.527   1.208
  836W        W 1933   5.535   2.283   0.460
  837W        W 1934   4.341   1.637   5.521
  838W        W 1935   0.371   1.228   2.778
  839W        W 1936   3.015   6.707   7.310
  840W        W 1937   0.882   0.670   7.955
  841W        W 1938   7.777   3.179   6.335
  842W        W 1939   3.071   7.124   6.335
  843W        W 1940   3.376   3.544   5.376
  844W        W 1941   4.457   5.449   4.964
  845W        W 1942   5.347   4.345   1.094
  846W        W 1943   3.292   5.224   4.738
  847W        W 1944   6.897   6.662   6.154
  848W        W 1945   4.353   2.719   3.428
  849W        W 1946   2.971   6.451   7.788
  850W        W 1947   0.616   0.471   5.395
  851W        W 1948   3.983   2.725   1.255
  852W        W 1949   1.854   1.403   5.399
  853W        W 1950   3.907   2.497   3.533
  854W        W 1951   1.581   1.251   0.906
  855W        W 1952   6.382   3.580   7.520
  856W        W 1953   4.940   4.661   7.792
  857W        W 1954   2.946   6.336   3.816
  858W        W 1955   6.426   1.935   0.110
  859W        W 1956   1.211   7.822   2.970
  860W        W 1957   6.111   6.828   5.315
  861W        W 1958   5.273   4.817   6.844
  862W        W 1959   4.044   5.755   6.705
  863W        W 1960   4.465   5.860   1.920
  864W        W 1961   0.410   5.488   6.090
  865W        W 1962   6.839   2.131   2.866
  866W        W 1963   1.510   2.626   6.229
  867W        W 1964   4.522   5.374   7.502
  868W        W 1965   6.804   6.412   3.309
  869W        W 1966   5.967   4.105   5.731
  870W        W 1967   6.678   1.424   1.326
  871W        W 1968   0.403   3.828   5.593
  872W        W 1969   4.039   3.354   7.301
  873W        W 1970   0.676   4.976   5.527
  874W        W 1971   4.526   2.433   7.341
  875W        W 1972   4.081   5.049   2.700
  876W        W 1973   2.969   5.289   0.188
  877W        W 1974   3.264   2.997   3.023
  878W        W 1975   6.527   1.727   4.487
  879W        W 1976   4.892   5.583   1.249
  880W        W 1977   6.774   3.122   3.797
  881W        W 1978   0.775   3.359   1.964
  882W        W 1979   5.577   1.954   4.391
  883W        W 1980   6.644   6.237   3.818
  884W        W 1981   5.500   1.284   5.705
  885W        W 1982   7.260   5.646   6.721
  886W        W 1983   3.859   3.745   2.949
  887W        W 1984   6.146   2.900   1.136
  888W        W 1985   7.035   4.610   6.637
  889W        W 1986   1.259   1.115   1.278
  890W        W 1987   7.400   7.319   3.934
  891W        W 1988   1.663   5.119   5.529
  892W        W 1989   6.815   3.788   1.604
  893W        W 1990   2.530   2.494   3.288
  894W        W 1991   1.378   2.284   3.081
  895W        W 1992   2.854   4.552   5.168
  896W        W 1993   6.897   5.943   3.494
  897W        W 1994   0.571   3.127   0.936
  898W        W 1995   4.052   0.642   1.027
  899W        W 1996   4.065   6.087   7.078
  900W        W 1997   4.964   7.795   1.383
  901W        W 1998   3.219   1.757   3.398
  902W        W 1999   6.583   4.848   0.737
  903W        W 2000   6.336   5.761   2.278
  904W        W 2001   2.991   4.245   4.770
  905W        W 2002   0.331   2.660   1.038
  906W        W 2003   5.339   2.682   0.771
  907W        W 2004   6.821   1.933   3.931
  908W        W 2005   0.201   4.838   5.630
  909W        W 2006   5.874   0.977   0.926
  910W        W 2007   3.860   2.816   2.707
  911W        W 2008   1.256   0.733   4.778
  912W        W 2009   5.397   2.949   2.508
  913W        W 2010   6.304   6.257   4.193
  914W        W 2011   2.399   2.890   1.133
  915W        W 2012   2.522   4.105   2.828
  916W        W 2013   6.902   1.396   6.058
  917W        W 2014   5.416   0.273   7.106
  918W        W 2015   1.245   5.261   0.264
  919W        W 2016   4.587   7.321   5.594
  920W        W 2017   3.209   2.698   4.113
  921W        W 2018   2.629   5.990   1.186
  922W        W 2019   2.092   5.331   0.362
  923W        W 2020   0.545   3.957   0.726
  924W        W 2021   2.286   4.771   6.128
  925W        W 2022   6.453   3.517   1.255
  926W        W 2023   4.314   2.929   7.430
  927W        W 2024   1.322   5.906   4.559
  928W        W 2025   3.619   7.862   7.572
  929W        W 2026   3.469   4.905   5.128
  930W        W 2027   7.012   2.029   2.017
  931W        W 2028   6.492   7.711   6.641
  932W        W 2029   3.052   5.717   2.973
  933W        W 2030   2.093   5.430   5.041
  934W        W 2031   4.526   7.258   0.631
  935W        W 2032   4.225   6.298   3.233
  936W        W 2033   1.370   5.732   0.087
  937W        W 2034   6.393   7.305   3.030
  938W        W 2035   1.151   4.680   3.406
  939W        W 2036   2.116   0.560   4.339
  940W        W 2037   5.085   5.881   4.515
  941W        W 2038   5.429   1.992   1.857
  942W        W 2039   3.710   0.034   7.090
  943W        W 2040   6.113   4.697   2.988
  944W        W 2041   7.783   5.721   6.633
  945W        W 2042   6.231   5.504   1.416
  946W        W 2043   0.462   1.392   7.642
  947W        W 2044   0.061   7.519   6.448
  948W        W 2045   6.843   1.135   5.610
  949W        W 2046   2.726   4.940   6.317
  950W        W 2047   1.744   5.586   5.373
  951W        W 2048   3.165   6.478   5.521
  952W        W 2049   1.995   3.565   5.679
  953W        W 2050   1.537   3.350   4.509
  954W        W 2051   2.068   4.652   6.987
  955W        W 2052   3.870   2.524   0.098
  956W        W 2053   5.765   5.628   1.617
  957W        W 2054   7.596   3.207   1.959
  958W        W 2055   5.614   2.461   3.706
  959W        W 2056   2.403   3.105   6.453
  960W        W 2057   6.501   0.151   3.380
  961W        W 2058   7.173   2.575   0.021
  962W        W 2059   6.813   4.661   5.357
  963W        W 2060   1.726   6.696   2.533
  964W        W 2061   2.403   5.106   6.694
  965W        W 2062   2.662   4.024   4.427
  966W        W 2063   0.748   1.629   4.044
  967W        W 2064   1.036   3.542   1.583
  968W        W 2065   3.581   5.070   2.615
  969W        W 2066   4.695   7.142   3.315
  970W        W 2067   7.006   5.595   3.864
  971W        W 2068   5.177   6.161   6.534
  972W        W 2069   3.031   0.791   7.985
  973W        W 2070   5.088   3.453   4.487
  974W        W 2071   4.582   0.125   7.242
  975W        W 2072   1.391   4.070   7.553
  976W        W 2073   4.933   0.723   2.407
  977W        W 2074   1.002   3.826   6.728
  978W        W 2075   4.403   0.451   1.365
  979W        W 2076   5.362   5.733   7.750
  980W        W 2077   3.450   4.939   1.761
  981W        W 2078   4.654   1.491   0.928
  982W        W 2079   1.439   5.933   7.625
  983W        W 2080   3.245   6.248   7.282
  984W        W 2081   0.987   2.598   5.922
  985W        W 2082   3.071   7.734   6.341
  986W        W 2083   1.811   0.814   0.229
  987W        W 2084   0.836   7.090   6.305
  988W        W 2085   1.303   1.787   1.966
  989W        W 2086   1.598   2.082   2.254
  990W        W 2087   2.277   2.940   7.097
  991W        W 2088   5.622   1.624   2.159
  992W        W 2089   5.237   1.881   0.508
  993W        W 2090   3.170   4.850   1.333
  994W        W 2091   5.025   4.733   2.564
  995W        W 2092   5.139   6.707   6.583
  996W        W 2093   5.718   1.949   6.334
  997W        W 2094   7.448   2.738   3.088
  998W        W 2095   5.989   1.586   3.436
  999W        W 2096   1.515   2.643   6.746
 1000W        W 2097   5.686   3.613   3.139
 1001W        W 2098   0.691   1.699   5.599
 1002W        W 2099   3.948   1.706   7.081
 1003W        W 2100   1.096   3.375   3.723
 1004W        W 2101   0.768   3.824   3.057
 1005W        W 2102   1.968   4.203   4.893
 1006W        W 2103   1.101   1.750   5.966
 1007W        W 2104   5.039   0.564   5.215
 1008W        W 2105   1.409   4.449   0.263
 1009W        W 2106   4.529   0.469   5.264
 1010W        W 2107   0.802   2.113   5.254
 1011W        W 2108   1.842   0.301   0.159
 1012W        W 2109   5.015   2.079   1.533
 1013W        W 2110   6.511   3.595   1.995
 1014W        W 2111   1.174   6.863   3.330
 1015W        W 2112   0.503   0.721   0.322
 1016W        W 2113   7.715   0.698   7.354
 1017W        W 2114   1.587   2.898   1.640
 1018W        W 2115   0.597   5.228   1.098
 1019W        W 2116   2.486   4.913   5.032
 1020W        W 2117   5.914   1.728   3.922
 1021W        W 2118   1.430   3.085   6.517
 1022W        W 2119   2.906   3.799   0.403
 1023W        W 2120   6.296   1.962   2.694
 1024W        W 2121   7.555   7.811   4.002
 1025W        W 2122   1.218   3.882   5.915
 1026W        W 2123   5.897   1.795   1.247
 1027W        W 2124   4.232   1.489   1.187
 1028W        W 2125   2.325   1.433   5.791
 1029W        W 2126   7.770   7.533   6.893
 1030W        W 2127   6.886   3.681   5.618
 1031W        W 2128   7.021   7.999   3.361
 1032W        W 2129   6.336   4.766   7.401
 1033W        W 2130   1.694   1.956   2.764
 1034W        W 2131   3.433   5.383   0.383
 1035W        W 2132   2.983   1.326   1.769
 1036W        W 2133   5.316   6.266   5.585
 1037W        W 2134   1.132   5.633   3.334
 1038W        W 2135   6.084   4.302   4.792
 1039W        W 2136   5.981   7.492   3.713
 1040W        W 2137   2.495   0.814   7.064
 1041W        W 2138   6.072   3.329   7.195
 1042W        W 2139   4.597   3.193   2.757
 1043W        W 2140   7.354   2.416   5.612
 1044W        W 2141   7.537   7.633   6.443
 1045W        W 2142   0.720   5.917   1.798
 1046W        W 2143   6.009   3.183   4.648
 1047W        W 2144   3.787   1.288   7.774
 1048W        W 2145   3.528   3.034   2.009
 1049W        W 2146   6.183   4.470   4.325
 1050W        W 2147   2.372   5.456   7.111
 1051W        W 2148   3.864   6.227   3.580
 1052W        W 2149   0.695   1.814   1.461
 1053W        W 2150   5.381   1.572   2.603
 1054W        W 2151   6.476   2.531   7.483
 1055W        W 2152   3.179   6.020   2.310
 1056W        W 2153   1.591   6.186   0.056
 1057W        W 2154   4.393   5.199   0.304
 1058W        W 2155   6.490   2.335   0.473
 1059W        W 2156   3.502   6.694   7.129
 1060W        W 2157   7.292   2.397   6.140
 1061W        W 2158   3.090   1.696   6.141
 1062W        W 2159   4.754   6.253   4.963
 1063W        W 2160   7.875   1.586   1.838
 1064W        W 2161   5.984   5.463   7.882
 1065W        W 2162   1.190   2.988   0.189
 1066W        W 2163   2.720   2.992   6.032
 1067W        W 2164   3.963   1.984   5.332
 1068W        W 2165   4.072   2.483   7.104
 1069W        W 2166   3.143   2.761   4.620
 1070W        W 2167   6.320   1.426   4.096
 1071W        W 2168   3.677   5.417   1.786
 1072W        W 2169   3.966   2.882   2.209
 1073W        W 2170   2.682   2.977   4.662
 1074W        W 2171   3.503   4.397   6.447
 1075W        W 2172   2.485   2.179   3.659
 1076W        W 2173   7.031   5.672   5.247
 1077W        W 2174   3.538   5.787   3.095
 1078W        W 2175   6.883   6.173   5.275
 1079W        W 2176   5.943   1.825   7.960
 1080W        W 2177   0.503   6.396   4.496
 1081W        W 2178   4.605   4.676   5.736
 1082W        W 2179   5.258   0.976   3.228
 1083W        W 2180   2.083   6.554   1.066
 1084W        W 2181   4.613   4.984   6.617
 1085W        W 2182   3.521   1.252   5.497
 1086W        W 2183   6.587   2.101   5.261
 1087W        W 2184   6.817   2.968   5.206
 1088W        W 2185   3.849   3.467   3.991
 1089W        W 2186   5.828   4.155   2.331
 1090W        W 2187   1.294   2.221   6.579
 1091W        W 2188   1.706   5.730   6.701
 1092W        W 2189   0.971   5.696   4.117
 1093W        W 2190   2.303   4.023   1.593
 1094W        W 2191   4.107   6.761   4.242
 1095W        W 2192   4.361   1.699   3.502
 1096W        W 2193   6.634   2.624   4.592
 1097W        W 2194   7.781   2.376   3.254
 1098W        W 2195   4.682   3.655   5.557
 1099W        W 2196   3.043   3.200   5.301
 1100W        W 2197   2.860   1.013   4.502
 1101W        W 2198   2.923   6.445   4.632
 1102W        W 2199   1.228   4.101   5.436
 1103W        W 2200   0.621   1.806   6.124
 1104W        W 2201   1.594   2.597   0.800
 1105W        W 2202   3.707   3.253   2.957
 1106W        W 2203   6.832   4.844   1.589
 1107W        W 2204   3.866   6.069   5.963
 1108W        W 2205   5.866   4.952   7.474
 1109W        W 2206   1.776   1.656   4.844
 1110W        W 2207   1.357   1.081   4.390
 1111W        W 2208   6.477   5.698   1.009
 1112W        W 2209   4.090   0.783   0.515
 1113W        W 2210   6.872   5.362   0.849
 1114W        W 2211   5.541   2.028   4.887
 1115W        W 2212   5.557   7.206   5.855
 1116W        W 2213   4.462   2.085   5.289
 1117W        W 2214   0.561   6.788   1.962
 1118W        W 2215   1.107   6.042   2.173
 1119W        W 2216   1.677   6.493   7.636
 1120W        W 2217   5.844   5.158   1.440
 1121W        W 2218   4.565   7.963   0.200
 1122W        W 2219   6.419   5.069   6.991
 1123W        W 2220   4.279   4.045   2.853
 1124W        W 2221   6.751   4.511   5.885
 1125W        W 2222   6.314   2.999   5.277
 1126W        W 2223   7.228   6.475   2.473
 1127W        W 2224   6.178   3.273   6.705
 1128W        W 2225   5.928   5.832   7.545
 1129W        W 2226   1.176   2.563   0.484
 1130W        W 2227   1.958   6.868   0.678
 1131W        W 2228   2.732   6.442   0.815
 1132W        W 2229   4.077   6.887   1.777
 1133W        W 2230   6.130   5.428   1.903
 1134W        W 2231   1.677   2.454   2.701
 1135W        W 2232   2.552   5.929   2.150
 1136W        W 2233   2.978   6.878   0.687
 1137W        W 2234   3.601   2.828   6.269
 1138W        W 2235   6.369   2.933   4.317
 1139W        W 2236   1.376   6.963   6.181
 1140W        W 2237   5.988   5.961   6.652
 1141W        W 2238   2.244   3.791   7.537
 1142W        W 2239   5.100   3.199   3.688
 1143W        W 2240   3.929   0.587   1.533
 1144W        W 2241   4.206   4.600   5.452
 1145W        W 2242   6.612   0.707   2.676
 1146W        W 2243   1.284   6.083   2.668
 1147W        W 2244   2.969   3.681   0.909
 1148W        W 2245   6.819   0.813   7.381
 1149W        W 2246   3.148   1.284   2.275
 1150W        W 2247   3.942   5.908   4.542
 1151W        W 2248   4.394   1.946   7.246
 1152W        W 2249   0.440   5.831   1.234
 1153W        W 2250   1.271   5.166   3.551
 1154W        W 2251   4.158   5.413   1.935
 1155W        W 2252   5.429   2.440   1.605
 1156W        W 2253   4.278   0.833   4.030
 1157W        W 2254   1.939   6.628   4.625
 1158W        W 2255   6.054   1.289   2.051
 1159W        W 2256   0.521   5.615   5.219
 1160W        W 2257   4.493   2.277   0.708
 1161W        W 2258   2.766   1.658   4.331
 1162W        W 2259   4.770   2.069   4.463
 1163W        W 2260   6.672   2.066   2.386
 1164W        W 2261   6.323   5.127   2.815
 1165W        W 2262   5.289   0.511   7.563
 1166W        W 2263   5.261   1.775   6.967
 1167W        W 2264   1.254   1.101   2.812
 1168W        W 2265   0.071   5.127   6.014
 1169W        W 2266   1.736   3.699   7.400
 1170W        W 2267   2.180   4.811   4.649
 1171W        W 2268   3.913   1.465   1.597
 1172W        W 2269   6.181   2.446   3.287
 1173W        W 2270   1.884   7.102   2.220
 1174W        W 2271   2.536   5.664   0.800
 1175W        W 2272   0.804   1.050   2.561
 1176W        W 2273   6.444   3.958   5.558
 1177W        W 2274   3.598   1.316   6.012
 1178W        W 2275   6.030   0.138   0.564
 1179W        W 2276   3.182   2.643   2.014
 1180W        W 2277   1.465   2.534   7.243
 1181W        W 2278   0.291   6.633   2.374
 1182W        W 2279   5.868   2.764   2.514
 1183W        W 2280   6.811   3.992   2.187
 1184W        W 2281   2.027   4.148   3.508
 1185W        W 2282   5.887   5.117   2.424
 1186W        W 2283   3.441   7.576   7.154
 1187W        W 2284   3.832   3.449   6.839
 1188W        W 2285   5.985   3.752   1.158
 1189W        W 2286   3.200   4.844   2.944
 1190W        W 2287   5.094   4.867   5.796
 1191W        W 2288   0.941   0.464   5.798
 1192W        W 2289   5.135   5.207   2.009
 1193W        W 2290   3.212   2.262   2.365
 1194W        W 2291   4.150   5.595   5.516
 1195W        W 2292   2.611   6.150   1.678
 1196W        W 2293   5.617   4.638   7.157
 1197W        W 2294   5.165   6.434   4.651
 1198W        W 2295   3.836   2.515   0.615
 1199W        W 2296   1.137   4.388   6.045
 1200W        W 2297   0.586   7.514   6.492
 1201W        W 2298   3.807   5.263   4.845
 1202W        W 2299   2.425   0.795   5.229
 1203W        W 2300   3.859   6.847   7.481
 1204W        W 2301   1.084   0.665   4.282
 1205W        W 2302   1.197   6.391   7.813
 1206W        W 2303   5.761   6.958   4.097
 1207W        W 2304   1.102   3.020   2.784
 1208W        W 2305   0.678   4.456   6.326
 1209W        W 2306   3.491   4.132   4.753
 1210W        W 2307   1.351   3.237   1.994
 1211W        W 2308   3.698   2.071   7.876
 1212W        W 2309   0.838   5.436   3.694
 1213W        W 2310   0.032   1.245   1.482
 1214W        W 2311   1.975   7.597   2.480
 1215W        W 2312   5.361   4.381   2.389
 1216W        W 2313   1.668   0.923   5.566
 1217W        W 2314   3.655   6.934   0.009
 1218W        W 2315   5.931   7.082   2.784
 1219W        W 2316   1.013   4.871   4.318
 1220W        W 2317   7.110   5.273   6.120
 1221W        W 2318   2.914   1.997   5.765
 1222W        W 2319   4.472   5.392   4.078
 1223W        W 2320   6.466   2.043   1.929
 1224W        W 2321   6.784   1.037   3.444
 1225W        W 2322   6.339   3.800   2.805
 1226W        W 2323   4.871   1.488   7.000
 1227W        W 2324   4.293   7.494   1.026
 1228W        W 2325   5.130   7.084   2.512
 1229W        W 2326   0.433   1.749   5.162
 1230W        W 2327   4.039   0.657   2.205
 1231W        W 2328   4.955   7.912   6.993
 1232W        W 2329   2.947   2.826   5.619
 1233W        W 2330   5.072   0.586   0.765
 1234W        W 2331   3.070   1.636   7.296
 1235W        W 2332   0.359   5.099   5.136
 1236W        W 2333   7.760   6.587   5.046
 1237W        W 2334   2.183   4.841   0.441
 1238W        W 2335   5.706   0.680   7.295
 1239W        W 2336   2.586   3.300   3.558
 1240W        W 2337   5.501   3.077   0.474
 1241W        W 2338   6.426   0.462   6.211
 1242W        W 2339   5.783   5.191   3.801
 1243W        W 2340   5.799   3.404   5.952
 1244W        W 2341   7.808   1.812   7.048
 1245W        W 2342   7.808   1.103   6.628
 1246W        W 2343   3.845   7.370   1.764
 1247W        W 2344   6.718   7.391   5.000
 1248W        W 2345   4.844   2.902   3.372
 1249W        W 2346   1.772   2.617   1.288
 1250W        W 2347   7.713   4.152   1.993
 1251W        W 2348   4.824   0.146   5.566
 1252W        W 2349   2.128   2.658   7.518
 1253W        W 2350   1.455   3.599   5.340
 1254W        W 2351   4.288   1.813   1.585
 1255W        W 2352   2.860   6.340   2.109
 1256W        W 2353   2.967   1.745   6.654
 1257W        W 2354   1.889   3.961   2.196
 1258W        W 2355   1.454   6.549   5.841
 1259W        W 2356   0.854   6.811   7.183
 1260W        W 2357   4.249   2.738   0.798
 1261W        W 2358   4.784   1.460   6.447
 1262W        W 2359   3.263   5.391   6.988
 1263W        W 2360   5.011   5.700   2.246
 1264W        W 2361   2.312   1.435   2.477
 1265W        W 2362   3.751   5.955   2.641
 1266W        W 2363   2.298   6.363   3.364
 1267W        W 2364   3.738   6.376   4.475
 1268W        W 2365   2.259   6.538   6.518
 1269W        W 2366   0.361   7.983   6.516
 1270W        W 2367   5.615   6.524   0.398
 1271W        W 2368   6.597   4.614   2.860
 1272W        W 2369   5.808   6.473   1.410
 1273W        W 2370   2.051   4.680   7.518
 1274W        W 2371   6.215   5.524   3.592
 1275W        W 2372   2.953   5.706   5.200
 1276W        W 2373   1.672   6.320   2.861
 1277W        W 2374   5.041   3.992   2.530
 1278W        W 2375   5.044   1.997   5.253
 1279W        W 2376   6.450   2.173   4.762
 1280W        W 2377   5.659   2.956   7.992
 1281W        W 2378   4.883   5.381   0.307
 1282W        W 2379   1.308   3.671   1.170
 1283W        W 2380   5.026   4.442   5.522
 1284W        W 2381   6.839   5.622   0.422
 1285W        W 2382   4.040   2.274   1.486
 1286W        W 2383   7.222   5.669   3.105
 1287W        W 2384   3.996   6.618   7.018
 1288W        W 2385   2.160   5.674   1.166
 1289W        W 2386   7.485   2.759   1.687
 1290W        W 2387   1.084   5.413   4.539
 1291W        W 2388   5.613   5.023   6.517
 1292W        W 2389   4.007   6.090   5.389
 1293W        W 2390   7.338   7.036   7.000
 1294W        W 2391   6.803   4.919   7.552
 1295W        W 2392   7.105   6.509   6.967
 1296W        W 2393   2.652   2.918   5.181
 1297W        W 2394   1.378   4.770   3.870
 1298W        W 2395   6.391   6.639   7.753
 1299W        W 2396   0.253   5.787   6.458
 1300W        W 2397   1.374   1.089   0.058
 1301W        W 2398   5.735   4.142   0.369
 1302W        W 2399   3.638   3.602   7.582
 1303W        W 2400   0.452   3.882   6.533
 1304W        W 2401   2.942   4.474   3.490
 1305W        W 2402   4.500   2.254   3.222
 1306W        W 2403   1.425   1.327   7.620
 1307W        W 2404   4.846   7.084   0.258
 1308W        W 2405   5.701   4.562   2.053
 1309W        W 2406   2.463   2.454   7.181
 1310W        W 2407   3.374   5.838   6.106
 1311W        W 2408   5.244   6.923   3.972
 1312W        W 2409   5.612   2.994   1.132
 1313W        W 2410   6.682   4.405   7.517
 1314W        W 2411   6.223   4.430   2.124
 1315W        W 2412   5.400   1.068   1.550
 1316W        W 2413   0.238   0.627   7.360
 1317W        W 2414   4.094   2.437   5.151
 1318W        W 2415   7.617   3.187   1.394
 1319W        W 2416   0.346   6.753   3.375
 1320W        W 2417   1.850   6.686   6.208
 1321W        W 2418   6.320   4.265   7.160
 1322W        W 2419   4.211   2.557   6.579
 1323W        W 2420   3.407   0.443   6.982
 1324W        W 2421   7.562   6.647   6.745
 1325W        W 2422   5.488   1.338   6.231
 1326W        W 2423   3.806   0.220   6.624
 1327W        W 2424   4.976   1.299   4.935
 1328W        W 2425   0.543   4.228   2.029
 1329W        W 2426   2.049   4.375   6.315
 1330W        W 2427   4.075   2.488   3.030
 1331W        W 2428   3.600   0.278   5.100
 1332W        W 2429   6.631   7.846   4.143
 1333W        W 2430   1.064   3.717   7.409
 1334W        W 2431   2.625   5.500   1.294
 1335W        W 2432   6.138   6.082   3.728
 1336W        W 2433   2.310   1.549   1.949
 1337W        W 2434   2.143   4.080   3.984
 1338W        W 2435   0.019   1.837   6.552
 1339W        W 2436   4.037   7.559   5.270
 1340W        W 2437   1.927   2.882   6.405
 1341W        W 2438   6.705   5.044   3.138
 1342W        W 2439   1.635   1.727   0.606
 1343W        W 2440   3.089   5.180   2.576
 1344W        W 2441   6.824   4.862   6.254
 1345W        W 2442   2.049   5.866   5.659
 1346W        W 2443   0.591   1.476   2.324
 1347W        W 2444   0.517   3.752   2.204
 1348W        W 2445   0.314   6.499   4.027
 1349W        W 2446   5.901   4.982   4.273
 1350W        W 2447   6.788   2.305   1.664
 1351W        W 2448   0.918   1.223   7.842
 1352W        W 2449   5.349   0.229   5.430
 1353W        W 2450   2.214   3.820   3.093
 1354W        W 2451   6.094   7.475   2.291
 1355W        W 2452   3.331   1.002   6.508
 1356W        W 2453   5.630   3.399   0.827
 1357W        W 2454   3.792   1.203   3.409
 1358W        W 2455   1.397   1.362   5.677
 1359W        W 2456   4.733   3.477   0.736
 1360W        W 2457   1.852   5.465   2.400
 1361W        W 2458   4.525   7.937   7.702
 1362W        W 2459   3.067   0.985   0.485
 1363W        W 2460   7.223   6.876   5.836
 1364W        W 2461   4.434   7.256   2.340
 1365W        W 2462   4.773   5.173   0.802
 1366W        W 2463   4.398   1.443   7.173
 1367W        W 2464   7.669   2.678   6.990
 1368W        W 2465   0.856   0.435   4.925
 1369W        W 2466   4.939   6.006   5.388
 1370W        W 2467   4.087   7.684   7.813
 1371W        W 2468   3.249   5.649   7.957
 1372W        W 2469   6.172   2.805   2.112
 1373W        W 2470   5.103   6.616   0.312
 1374W        W 2471   0.559   4.998   6.183
 1375W        W 2472   4.732   6.334   6.382
 1376W        W 2473   5.714   5.388   5.563
 1377W        W 2474   6.925   1.834   7.252
 1378W        W 2475   1.553   5.409   7.431
 1379W        W 2476   4.911   1.132   1.588
 1380W        W 2477   3.039   2.859   0.570
 1381W        W 2478   6.654   7.497   2.261
 1382W        W 2479   7.209   3.822   6.002
 1383W        W 2480   7.201   6.409   6.471
 1384W        W 2481   1.188   2.128   7.093
 1385W        W 2482   2.037   5.749   0.659
 1386W        W 2483   4.328   7.149   5.192
 1387W        W 2484   1.549   0.291   3.375
 1388W        W 2485   2.234   1.383   3.053
 1389W        W 2486   4.322   1.082   2.293
 1390W        W 2487   2.114   3.166   3.778
 1391W        W 2488   4.618   5.938   6.668
 1392W        W 2489   2.371   0.038   7.724
 1393W        W 2490   7.602   6.748   1.676
 1394W        W 2491   6.226   5.527   3.096
 1395W        W 2492   1.561   3.405   3.502
 1396W        W 2493   7.726   1.613   1.266
 1397W        W 2494   4.514   7.149   4.726
 1398W        W 2495   6.892   1.668   0.926
 1399W        W 2496   7.741   2.555   0.783
 1400W        W 2497   7.757   3.622   1.713
 1401W        W 2498   1.929   1.712   2.316
 1402W        W 2499   4.209   2.096   7.874
 1403W        W 2500   4.217   5.486   2.434
 1404W        W 2501   3.789   5.264   5.371
 1405W        W 2502   1.202   4.816   0.556
 1406W        W 2503   0.567   1.210   0.648
 1407W        W 2504   7.112   2.318   2.444
 1408W        W 2505   2.619   4.377   6.199
 1409W        W 2506   3.442   1.272   7.311
 1410W        W 2507   6.316   1.571   3.054
 1411W        W 2508   5.185   3.670   0.033
 1412W        W 2509   5.475   0.430   2.182
 1413W        W 2510   0.731   1.358   6.346
 1414W        W 2511   6.169   4.280   6.624
 1415W        W 2512   3.444   3.158   3.476
 1416W        W 2513   3.201   0.730   0.913
 1417W        W 2514   5.443   5.162   6.029
 1418W        W 2515   0.468   6.615   2.854
 1419W        W 2516   0.953   5.978   3.660
 1420W        W 2517   2.606   0.556   2.730
 1421W        W 2518   2.886   0.442   7.115
 1422W        W 2519   2.991   4.682   2.520
 1423W        W 2520   6.387   1.746   1.070
 1424W        W 2521   7.511   7.492   4.408
 1425W        W 2522   2.101   2.710   2.558
 1426W        W 2523   6.202   0.717   1.826
 1427W        W 2524   5.147   2.680   3.780
 1428W        W 2525   2.622   5.434   6.357
 1429W        W 2526   3.616   4.920   6.481
 1430W        W 2527   7.239   3.555   3.630
 1431W        W 2528   3.375   2.347   0.478
 1432W        W 2529   2.613   0.460   6.686
 1433W        W 2530   6.937   3.146   6.529
 1434W        W 2531   2.518   1.534   1.008
 1435W        W 2532   0.918   4.853   2.390
 1436W        W 2533   0.470   1.636   7.192
 1437W        W 2534   6.745   5.599   6.877
 1438W        W 2535   1.896   0.136   3.021
 1439W        W 2536   7.287   2.916   6.185
 1440W        W 2537   3.606   4.428   1.955
 1441W        W 2538   7.501   1.889   2.020
 1442W        W 2539   0.321   6.985   3.849
 1443W        W 2540   1.545   4.980   4.319
 1444W        W 2541   3.191   1.775   0.837
 1445W        W 2542   3.492   4.539   0.609
 1446W        W 2543   4.589   2.335   6.855
 1447W        W 2544   0.803   4.125   5.741
 1448W        W 2545   4.924   2.725   4.651
 1449W        W 2546   6.071   1.853   6.959
 1450W        W 2547   0.864   6.033   5.351
 1451W        W 2548   1.380   3.330   7.407
 1452W        W 2549   2.030   4.974   2.987
 1453W        W 2550   2.644   1.205   2.153
 1454W        W 2551   6.615   2.887   3.046
 1455W        W 2552   3.252   3.482   2.817
 1456W        W 2553   5.273   6.089   4.999
 1457W        W 2554   5.299   1.961   6.050
 1458W        W 2555   0.521   1.716   6.655
 1459W        W 2556   2.314   2.230   6.315
 1460W        W 2557   0.379   2.151   6.423
 1461W        W 2558   4.678   7.312   2.779
 1462W        W 2559   3.146   2.727   5.163
 1463W        W 2560   5.681   6.355   5.919
 1464W        W 2561   6.332   4.142   1.294
 1465W        W 2562   3.031   3.450   5.802
 1466W        W 2563   5.483   4.667   7.705
 1467W        W 2564   5.274   3.973   1.418
 1468W        W 2565   6.092   4.945   0.709
 1469W        W 2566   1.843   5.419   5.889
 1470W        W 2567   3.445   1.996   5.279
 1471W        W 2568   2.013   5.152   3.459
 1472W        W 2569   4.237   0.370   6.371
 1473W        W 2570   1.642   0.719   2.707
 1474W        W 2571   6.510   3.479   5.293
 1475W        W 2572   1.007   4.209   7.242
 1476W        W 2573   1.566   0.476   7.524
 1477W        W 2574   2.894   4.847   7.967
 1478W        W 2575   4.435   5.027   5.264
 1479W        W 2576   2.835   2.113   6.293
 1480W        W 2577   1.979   6.163   1.820
 1481W        W 2578   2.146   3.943   4.458
 1482W        W 2579   3.320   1.104   3.199
 1483W        W 2580   5.381   5.393   6.863
 1484W        W 2581   2.037   2.710   0.522
 1485W        W 2582   0.846   5.345   5.873
 1486W        W 2583   5.871   2.212   5.741
 1487W        W 2584   2.770   4.963   4.582
 1488W        W 2585   2.723   0.791   1.848
 1489W        W 2586   2.077   6.593   2.915
 1490W        W 2587   1.772   5.804   1.507
 1491W        W 2588   6.273   4.774   2.477
 1492W        W 2589   2.068   1.011   2.657
 1493W        W 2590   2.700   2.431   5.366
 1494W        W 2591   2.101   1.715   1.509
 1495W        W 2592   0.795   6.525   3.250
 1496W        W 2593   5.763   7.774   7.928
 1497W        W 2594   2.923   2.546   3.677
 1498W        W 2595   2.790   5.394   6.831
 1499W        W 2596   5.835   5.727   2.164
 1500W        W 2597   2.724   2.671   4.249
 1501W        W 2598   3.489   6.566   3.483
 1502W        W 2599   2.949   2.009   5.244
 1503W        W 2600   0.506   0.509   6.469
 1504W        W 2601   2.048   2.221   2.427
 1505W        W 2602   3.966   1.670   0.077
 1506W        W 2603   4.102   4.716   7.236
 1507W        W 2604   1.327   6.317   7.312
 1508W        W 2605   4.511   3.148   6.417
 1509W        W 2606   7.050   1.412   0.511
 1510W        W 2607   5.639   1.222   5.208
 1511W        W 2608   5.189   4.932   0.150
 1512W        W 2609   5.017   3.451   2.538
 1513W        W 2610   6.661   2.157   0.941
 1514W        W 2611   1.036   2.583   6.915
 1515W        W 2612   0.289   0.958   6.702
 1516W        W 2613   6.426   4.559   3.883
 1517W        W 2614   7.091   3.577   6.794
 1518W        W 2615   4.585   3.923   7.465
 1519W        W 2616   1.887   5.471   2.937
 1520W        W 2617   1.487   4.138   1.231
 1521W        W 2618   4.361   2.788   2.521
 1522W        W 2619   4.347   6.009   5.767
 1523W        W 2620   3.812   2.999   0.839
 1524W        W 2621   3.763   0.876   5.801
 1525W        W 2622   7.244   6.524   5.023
 1526W        W 2623   2.638   4.231   0.253
 1527W        W 2624   3.537   6.487   1.203
 1528W        W 2625   1.323   2.990   7.042
 1529W        W 2626   3.535   1.422   4.520
 1530W        W 2627   2.243   7.037   4.854
 1531W        W 2628   0.433   0.965   6.188
 1532W        W 2629   1.583   1.126   6.786
 1533W        W 2630   2.641   5.665   4.370
 1534W        W 2631   1.443   4.701   5.753
 1535W        W 2632   7.132   3.096   2.900
 1536W        W 2633   4.061   2.415   5.658
 1537W        W 2634   1.168   0.914   5.661
 1538W        W 2635   1.226   0.946   3.875
 1539W        W 2636   5.880   0.799   2.249
 1540W        W 2637   5.370   6.584   1.680
 1541W        W 2638   2.100   2.528   3.550
 1542W        W 2639   4.278   2.608   3.940
 1543W        W 2640   2.723   1.331   6.123
 1544W        W 2641   0.623   0.712   7.004
 1545W        W 2642   5.821   5.146   2.917
 1546W        W 2643   6.355   3.552   0.362
 1547W        W 2644   3.519   5.962   4.250
 1548W        W 2645   1.438   6.903   0.690
 1549W        W 2646   1.096   1.775   0.625
 1550W        W 2647   2.456   1.795   6.528
 1551W        W 2648   6.449   4.341   0.779
 1552W        W 2649   3.455   4.018   6.094
 1553W        W 2650   7.858   2.709   2.775
 1554W        W 2651   2.480   5.887   5.325
 1555W        W 2652   1.944   5.246   6.827
 1556W        W 2653   3.514   2.845   0.387
 1557W        W 2654   5.417   7.162   2.933
 1558W        W 2655   4.047   5.156   7.526
 1559W        W 2656   2.882   3.151   2.715
 1560W        W 2657   2.034   6.989   5.313
 1561W        W 2658   0.701   2.694   0.688
 1562W        W 2659   4.292   5.049   6.204
 1563W        W 2660   6.640   2.634   4.020
 1564W        W 2661   6.902   4.317   3.174
 1565W        W 2662   7.583   1.533   0.793
 1566W        W 2663   2.234   2.163   6.834
 1567W        W 2664   5.433   4.185   5.318
 1568W        W 2665   7.596   1.305   0.330
 1569W        W 2666   3.722   7.893   2.693
 1570W        W 2667   4.021   7.108   0.575
 1571W        W 2668   5.420   6.349   7.012
 1572W        W 2669   5.190   4.374   2.874
 1573W        W 2670   2.306   6.149   0.837
 1574W        W 2671   2.903   5.144   5.553
 1575W        W 2672   2.588   4.960   2.880
 1576W        W 2673   2.233   3.323   2.101
 1577W        W 2674   5.791   1.120   6.591
 1578W        W 2675   7.274   7.236   6.208
 1579W        W 2676   0.689   0.369   4.448
 1580W        W 2677   4.088   6.319   2.741
 1581W        W 2678   4.011   2.393   2.413
 1582W        W 2679   0.835   0.948   1.533
 1583W        W 2680   4.943   4.445   6.039
 1584W        W 2681   4.653   6.123   3.459
 1585W        W 2682   2.032   3.398   4.443
 1586W        W 2683   1.183   0.453   7.201
 1587W        W 2684   1.137   7.913   7.341
 1588W        W 2685   4.285   6.525   0.693
 1589W        W 2686   3.165   3.945   5.131
 1590W        W 2687   1.080   6.210   4.915
 1591W        W 2688   6.608   2.039   7.615
 1592W        W 2689   5.959   6.977   2.283
 1593W        W 2690   3.884   6.491   7.866
 1594W        W 2691   4.738   0.403   0.407
 1595W        W 2692   2.426   3.874   7.050
 1596W        W 2693   2.997   1.716   3.864
 1597W        W 2694   1.761   0.719   4.670
 1598W        W 2695   1.439   4.177   2.098
 1599W        W 2696   1.185   3.036   6.062
 1600W        W 2697   0.602   5.776   5.709
 1601W        W 2698   0.739   1.080   2.025
 1602W        W 2699   2.321   4.975   3.807
 1603W        W 2700   6.485   2.791   3.542
 1604W        W 2701   3.950   6.127   4.071
 1605W        W 2702   4.205   3.200   4.638
 1606W        W 2703   2.236   5.872   4.115
 1607W        W 2704   3.950   3.021   1.690
 1608W        W 2705   4.345   4.459   0.919
 1609W        W 2706   4.784   4.679   7.010
 1610W        W 2707   6.054   1.934   4.545
 1611W        W 2708   0.361   2.671   1.543
 1612W        W 2709   4.323   4.946   0.764
 1613W        W 2710   2.353   6.564   0.499
 1614W        W 2711   2.532   5.605   0.298
 1615W        W 2712   1.628   4.158   4.516
 1616W        W 2713   2.207   5.399   5.542
 1617W        W 2714   5.945   4.029   3.029
 1618W        W 2715   4.296   4.120   6.609
 1619W        W 2716   6.095   1.089   0.494
 1620W        W 2717   4.680   1.398   0.400
 1621W        W 2718   0.775   6.246   2.649
 1622W        W 2719   4.925   5.542   6.630
 1623W        W 2720   4.585   1.152   6.781
 1624W        W 2721   0.268   5.985   6.009
 1625W        W 2722   7.011   7.491   4.211
 1626W        W 2723   4.092   4.675   1.941
 1627W        W 2724   5.656   0.464   2.662
 1628W        W 2725   5.471   6.851   4.543
 1629W        W 2726   5.886   2.306   2.738
 1630W        W 2727   4.979   4.075   7.777
 1631W        W 2728   0.498   7.177   7.303
 1632W        W 2729   2.498   5.170   0.665
 1633W        W 2730   1.465   0.747   0.982
 1634W        W 2731   4.428   5.896   4.726
 1635W        W 2732   0.939   1.634   7.499
 1636W        W 2733   1.115   0.288   7.697
 1637W        W 2734   5.755   3.002   7.429
 1638W        W 2735   4.013   3.048   6.515
 1639W        W 2736   2.542   6.475   1.270
 1640W        W 2737   4.953   1.792   0.077
 1641W        W 2738   7.040   6.250   1.263
 1642W        W 2739   3.653   1.229   6.851
 1643W        W 2740   6.778   6.446   2.206
 1644W        W 2741   3.235   6.132   3.318
 1645W        W 2742   3.491   3.712   7.104
 1646W        W 2743   4.017   2.948   0.384
 1647W        W 2744   4.666   6.834   6.826
 1648W        W 2745   7.809   4.083   1.494
 1649W        W 2746   1.492   1.789   7.316
 1650W        W 2747   6.366   5.145   7.745
 1651W        W 2748   1.568   4.486   7.764
 1652W        W 2749   1.579   1.815   5.790
 1653W        W 2750   2.284   4.554   2.910
 1654W        W 2751   5.948   3.312   1.391
 1655W        W 2752   5.508   6.869   6.918
 1656W        W 2753   4.285   2.130   4.793
 1657W        W 2754   3.178   4.115   2.042
 1658W        W 2755   7.228   2.325   0.841
 1659W        W 2756   7.460   5.942   1.416
 1660W        W 2757   6.134   3.338   0.865
 1661W        W 2758   1.088   2.672   3.349
 1662W        W 2759   5.770   1.542   1.681
 1663W        W 2760   2.624   1.355   6.756
 1664W        W 2761   3.362   6.886   5.324
 1665W        W 2762   3.227   1.832   4.312
 1666W        W 2763   1.605   6.807   3.038
 1667W        W 2764   4.261   2.176   3.652
 1668W        W 2765   4.637   0.732   6.299
 1669W        W 2766   2.888   1.946   4.730
 1670W        W 2767   5.835   6.663   1.890
 1671W        W 2768   3.579   5.184   1.323
 1672W        W 2769   0.726   3.121   0.383
 1673W        W 2770   1.235   1.598   0.060
 1674W        W 2771   6.283   5.084   3.904
 1675W        W 2772   2.638   6.331   6.824
 1676W        W 2773   3.964   5.041   1.621
 1677W        W 2774   6.645   1.805   5.735
 1678W        W 2775   2.312   1.976   3.243
 1679W        W 2776   3.323   4.699   6.815
 1680W        W 2777   6.470   4.085   1.826
 1681W        W 2778   4.808   3.550   7.724
 1682W        W 2779   7.981   7.075   7.185
 1683W        W 2780   6.515   2.300   6.191
 1684W        W 2781   5.856   6.527   2.903
 1685W        W 2782   1.578   5.984   0.544
 1686W        W 2783   4.139   4.139   0.242
 1687W        W 2784   3.503   5.699   4.855
 1688W        W 2785   7.214   1.585   3.515
 1689W        W 2786   5.358   3.675   3.567
 1690W        W 2787   2.148   0.999   5.601
 1691W        W 2788   6.747   3.877   5.100
 1692W        W 2789   4.312   3.952   1.426
 1693W        W 2790   0.853   2.946   7.248
 1694W        W 2791   4.898   3.233   5.341
 1695W        W 2792   0.355   1.414   5.914
 1696W        W 2793   3.182   6.626   6.326
 1697W        W 2794   0.873   5.614   0.147
 1698W        W 2795   5.658   4.567   4.504
 1699W        W 2796   1.367   4.521   4.317
 1700W        W 2797   4.884   5.758   4.947
 1701W        W 2798   7.363   6.069   0.907
 1702W        W 2799   1.005   4.428   2.117
 1703W        W 2800   4.135   1.955   5.879
 1704W        W 2801   6.096   3.277   1.929
 1705W        W 2802   0.423   1.199   4.461
 1706W        W 2803   3.395   5.147   5.704
 1707W        W 2804   1.684   3.134   6.054
 1708W        W 2805   5.317   6.813   0.740
 1709W        W 2806   6.315   1.724   4.967
 1710W        W 2807   1.305   4.364   1.654
 1711W        W 2808   6.679   4.354   6.368
 1712W        W 2809   1.230   5.815   1.704
 1713W        W 2810   0.442   5.837   2.753
 1714W        W 2811   4.440   5.065   7.098
 1715W        W 2812   2.284   1.100   1.082
 1716W        W 2813   5.618   1.284   0.569
 1717W        W 2814   3.812   1.788   2.178
 1718W        W 2815   5.398   0.359   4.911
 1719W        W 2816   6.457   4.130   3.583
 1720W        W 2817   4.645   2.379   6.356
 1721W        W 2818   2.485   1.861   6.001
 1722W        W 2819   1.189   3.169   3.259
 1723W        W 2820   2.922   0.860   6.795
 1724W        W 2821   6.770   4.919   4.012
 1725W        W 2822   0.926   5.085   3.189
 1726W        W 2823   0.889   1.160   4.205
 1727W        W 2824   5.667   5.258   1.989
 1728W        W 2825   0.594   6.321   6.923
 1729W        W 2826   1.659   3.285   3.999
 1730W        W 2827   4.510   7.975   1.163
 1731W        W 2828   5.343   5.330   1.560
 1732W        W 2829   2.213   5.617   6.612
 1733W        W 2830   0.131   6.245   2.659
 1734W        W 2831   3.422   2.687   0.887
 1735W        W 2832   0.999   2.537   2.865
 1736W        W 2833   6.978   0.797   3.033
 1737W        W 2834   2.058   5.102   4.240
 1738W        W 2835   6.617   5.293   6.010
 1739W        W 2836   1.590   6.187   4.933
 1740W        W 2837   3.354   2.066   6.541
 1741W        W 2838   7.452   4.092   5.633
 1742W        W 2839   0.255   2.254   3.476
 1743W        W 2840   3.134   6.504   6.825
 1744W        W 2841   6.631   0.942   6.065
 1745W        W 2842   3.191   3.297   0.334
 1746W        W 2843   6.936   2.275   6.994
 1747W        W 2844   5.674   4.451   3.031
 1748W        W 2845   1.894   5.779   0.143
 1749W        W 2846   1.985   2.678   3.050
 1750W        W 2847   0.951   3.664   5.516
 1751W        W 2848   5.637   3.470   0.187
 1752W        W 2849   6.243   1.064   6.362
 1753W        W 2850   3.083   6.267   5.983
 1754W        W 2851   4.645   1.854   6.747
 1755W        W 2852   5.700   3.800   1.597
 1756W        W 2853   5.222   0.512   0.251
 1757W        W 2854   3.989   4.598   6.409
 1758W        W 2855   2.468   0.125   5.869
 1759W        W 2856   4.291   1.403   2.700
 1760W        W 2857   3.121   0.453   7.578
 1761W        W 2858   3.746   3.339   4.514
 1762W        W 2859   0.588   5.373   2.489
 1763W        W 2860   2.960   5.097   2.038
 1764W        W 2861   6.414   5.669   7.642
 1765W        W 2862   0.363   6.109   5.390
 1766W        W 2863   1.019   1.979   1.099
 1767W        W 2864   3.019   5.710   0.440
 1768W        W 2865   2.065   6.351   4.209
 1769W        W 2866   2.123   0.478   4.959
 1770W        W 2867   1.696   0.517   6.372
 1771W        W 2868   4.733   3.446   0.223
 1772W        W 2869   1.691   3.643   6.093
 1773W        W 2870   7.146   7.396   6.681
 1774W        W 2871   4.808   7.725   5.861
 1775W        W 2872   6.063   6.175   2.047
 1776W        W 2873   3.913   4.270   0.672
 1777W        W 2874   4.419   1.256   4.716
 1778W        W 2875   3.507   6.932   2.699
 1779W        W 2876   0.998   4.868   5.953
 1780W        W 2877   0.521   5.920   7.237
 1781W        W 2878   3.165   5.195   7.705
 1782W        W 2879   0.730   2.129   2.735
 1783W        W 2880   2.259   3.585   4.050
 1784W        W 2881   6.588   4.615   1.187
 1785W        W 2882   6.897   1.346   7.432
 1786W        W 2883   5.985   2.101   3.593
 1787W        W 2884   7.250   6.170   3.149
 1788W        W 2885   2.774   5.950   2.613
 1789W        W 2886   5.272   4.203   6.356
 1790W        W 2887   3.189   4.019   4.362
 1791W        W 2888   5.147   3.165   0.105
 1792W        W 2889   2.322   5.813   3.520
 1793W        W 2890   4.084   5.031   6.691
 1794W        W 2891   6.374   7.674   2.677
 1795W        W 2892   4.695   4.797   1.150
 1796W        W 2893   1.813   2.935   4.380
 1797W        W 2894   5.754   2.389   4.575
 1798W        W 2895   2.380   6.189   2.898
 1799W        W 2896   2.804   1.199   7.224
 1800W        W 2897   3.052   1.445   4.704
 1801W        W 2898   4.998   2.330   0.523
 1802W        W 2899   1.385   5.303   3.052
 1803W        W 2900   5.370   0.996   0.897
 1804W        W 2901   2.165   3.113   5.859
 1805W        W 2902   3.210   0.040   7.225
 1806W        W 2903   4.479   4.307   1.885
 1807W        W 2904   1.743   6.794   4.161
 1808W        W 2905   2.908   3.664   1.946
 1809W        W 2906   4.684   2.057   7.685
 1810W        W 2907   7.391   6.836   3.797
 1811W        W 2908   5.360   7.646   7.647
 1812W        W 2909   1.230   4.056   4.188
 1813W        W 2910   7.961   3.642   3.050
 1814W        W 2911   0.785   1.537   0.306
 1815W        W 2912   5.874   6.912   6.571
 1816W        W 2913   1.546   3.447   6.946
 1817W        W 2914   1.175   7.225   7.090
 1818W        W 2915   1.991   2.619   1.761
 1819W        W 2916   2.748   6.266   7.334
 1820W        W 2917   1.875   4.451   5.833
 1821W        W 2918   3.137   3.748   2.408
 1822W        W 2919   1.081   6.472   6.889
 1823W        W 2920   1.380   0.829   0.492
 1824W        W 2921   1.556   5.490   4.337
 1825W        W 2922   1.467   1.682   6.796
 1826W        W 2923   1.113   0.900   6.981
 1827W        W 2924   1.238   4.838   7.985
 1828W        W 2925   6.559   6.041   1.933
 1829W        W 2926   3.721   6.569   3.962
 1830W        W 2927   4.413   6.374   6.824
 1831W        W 2928   2.885   3.939   6.028
 1832W        W 2929   0.650   5.857   6.737
 1833W        W 2930   1.652   1.732   3.952
 1834W        W 2931   0.716   5.847   0.589
 1835W        W 2932   5.884   6.488   2.386
 1836W        W 2933   6.536   6.788   5.791
 1837W        W 2934   6.162   0.829   4.813
 1838W        W 2935   4.655   1.728   4.970
 1839W        W 2936   7.252   1.878   0.574
 1840W        W 2937   3.630   2.459   5.331
 1841W        W 2938   1.995   0.514   5.463
 1842W        W 2939   1.888   6.595   2.064
 1843W        W 2940   5.946   4.640   1.605
 1844W        W 2941   5.449   1.978   0.055
 1845W        W 2942   5.180   6.770   1.232
 1846W        W 2943   3.565   2.156   3.319
 1847W        W 2944   0.560   3.210   1.496
 1848W        W 2945   6.360   3.046   7.501
 1849W        W 2946   4.594   1.925   2.003
 1850W        W 2947   7.476   1.983   6.386
 1851W        W 2948   0.494   2.455   6.012
 1852W        W 2949   0.138   7.913   6.983
 1853W        W 2950   7.160   1.777   3.026
 1854W        W 2951   1.855   5.782   6.228
 1855W        W 2952   1.348   5.217   2.270
 1856W        W 2953   2.687   0.424   7.872
 1857W        W 2954   2.178   4.053   5.508
 1858W        W 2955   6.816   6.396   1.699
 1859W        W 2956   5.742   1.125   4.718
 1860W        W 2957   2.093   7.910   5.593
 1861W        W 2958   5.962   1.949   3.091
 1862W        W 2959   4.599   2.148   0.202
 1863W        W 2960   1.172   1.597   1.481
 1864W        W 2961   1.795   6.118   7.285
 1865W        W 2962   0.144   6.883   0.993
 1866W        W 2963   3.439   1.621   7.956
 1867W        W 2964   4.233   6.283   4.961
 1868W        W 2965   1.037   3.038   1.648
 1869W        W 2966   1.122   1.313   6.671
 1870W        W 2967   3.291   1.239   0.878
 1871W        W 2968   7.478   3.592   5.643
 1872W        W 2969   3.449   6.069   5.661
 1873W        W 2970   5.787   4.627   2.566
 1874W        W 2971   6.132   7.129   4.465
 1875W        W 2972   6.168   2.812   7.064
 1876W        W 2973   4.592   0.896   0.450
 1877W        W 2974   3.335   4.634   3.818
 1878W        W 2975   3.125   2.674   2.659
 1879W        W 2976   3.236   6.984   2.273
 1880W        W 2977   2.224   4.354   0.537
 1881W        W 2978   4.743   0.883   5.477
 1882W        W 2979   6.241   1.448   2.550
 1883W        W 2980   4.013   5.376   7.072
 1884W        W 2981   2.374   5.271   4.638
 1885W        W 2982   1.104   5.622   6.713
 1886W        W 2983   2.460   4.289   3.310
 1887W        W 2984   7.151   6.717   1.992
 1888W        W 2985   2.350   0.494   6.241
 1889W        W 2986   2.356   3.610   5.330
 1890W        W 2987   2.816   4.046   1.623
 1891W        W 2988   2.503   5.121   0.158
 1892W        W 2989   6.181   5.085   0.223
 1893W        W 2990   4.293   3.398   7.737
 1894W        W 2991   4.927   7.208   6.544
 1895W        W 2992   0.213   1.384   6.397
 1896W        W 2993   4.728   3.862   3.692
 1897W        W 2994   0.787   2.809   1.262
 1898W        W 2995   6.752   3.298   1.641
 1899W        W 2996   6.663   2.388   7.985
 1900W        W 2997   2.362   7.276   2.364
 1901W        W 2998   0.505   0.905   7.700
 1902W        W 2999   6.610   3.522   6.632
 1903W        W 3000   2.413   3.105   2.517
 1904W        W 3001   6.704   6.976   2.143
 1905W        W 3002   2.709   4.739   0.424
 1906W        W 3003   5.519   2.404   6.047
 1907W        W 3004   4.268   1.925   2.401
 1908W        W 3005   5.126   1.661   3.668
 1909W        W 3006   6.752   4.984   2.546
 1910W        W 3007   2.830   2.897   3.291
 1911W        W 3008   4.990   4.167   1.807
 1912W        W 3009   6.187   6.409   5.782
 1913W        W 3010   2.494   2.125   4.999
 1914W        W 3011   1.744   4.554   1.371
 1915W        W 3012   1.766   4.604   0.572
 1916W        W 3013   3.912   3.401   3.391
 1917W        W 3014   1.216   3.047   4.162
 1918W        W 3015   1.036   3.956   0.874
 1919W        W 3016   1.013   3.368   2.409
 1920W        W 3017   4.098   0.085   7.427
 1921W        W 3018   2.291   6.046   6.327
 1922W        W 3019   1.070   3.691   5.039
 1923W        W 3020   3.718   2.574   6.694
 1924W        W 3021   4.197   0.879   5.048
 1925W        W 3022   3.139   5.103   6.567
 1926W        W 3023   7.556   6.651   3.331
 1927W        W 3024   5.234   4.316   6.871
 1928W        W 3025   6.327   0.297   3.839
 1929W        W 3026   7.698   2.051   0.792
 1930W        W 3027   6.441   7.956   6.190
 1931W        W 3028   2.875   5.258   3.184
 1932W        W 3029   0.012   6.492   3.100
 1933W        W 3030   6.664   7.224   6.578
 1934W        W 3031   5.730   4.293   6.156
 1935W        W 3032   4.929   6.905   2.937
 1936W        W 3033   3.682   1.587   5.124
 1937W        W 3034   5.833   5.629   7.052
 1938W        W 3035   5.546   2.559   7.522
 1939W        W 3036   6.968   2.128   6.467
 1940W        W 3037   3.455   1.693   6.959
 1941W        W 3038   7.068   3.437   4.099
 1942W        W 3039   0.802   2.589   1.812
 1943W        W 3040   6.465   6.017   5.573
 1944W        W 3041   5.103   4.421   5.005
 1945W        W 3042   4.190   3.355   0.732
 1946W        W 3043   1.170   4.188   3.538
 1947W        W 3044   3.876   0.467   2.656
 1948W        W 3045   5.952   0.255   7.106
 1949W        W 3046   1.905   5.490   1.894
 1950W        W 3047   5.388   5.614   4.804
 1951W        W 3048   5.589   6.794   6.170
 1952W        W 3049   2.846   0.884   3.755
 1953W        W 3050   4.017   0.122   1.337
 1954W        W 3051   5.264   1.488   1.796
 1955W        W 3052   2.041   1.014   6.964
 1956W        W 3053   4.188   5.458   4.522
 1957W        W 3054   5.587   3.928   3.958
 1958W        W 3055   3.456   5.347   6.220
 1959W        W 3056   6.188   7.754   3.190
 1960W        W 3057   6.025   2.805   6.546
 1961W        W 3058   5.244   7.723   0.723
 1962W        W 3059   0.603   2.568   6.542
 1963W        W 3060   2.444   4.716   4.234
 1964W        W 3061   1.013   0.472   6.700
 1965W        W 3062   6.532   2.564   1.274
 1966W        W 3063   4.316   5.126   1.247
 1967W        W 3064   0.746   6.726   3.728
 1968W        W 3065   5.616   4.149   4.827
 1969W        W 3066   6.828   6.674   7.429
 1970W        W 3067   0.950   4.668   7.025
 1971W        W 3068   3.303   2.248   1.700
 1972W        W 3069   2.649   1.321   3.947
 1973W        W 3070   2.365   1.316   5.292
 1974W        W 3071   5.174   2.731   6.215
 1975W        W 3072   0.772   0.870   4.641
 1976W        W 3073   1.404   6.088   1.316
 1977W        W 3074   5.393   7.736   7.156
 1978W        W 3075   3.768   4.994   3.101
 1979W        W 3076   6.347   1.063   5.616
 1980W        W 3077   6.860   1.148   0.919
 1981W        W 3078   7.739   3.657   1.191
 1982W        W 3079   6.710   4.484   4.320
 1983W        W 3080   1.196   1.190   1.778
 1984W        W 3081   7.571   1.331   7.607
 1985W        W 3082   5.700   2.439   7.996
 1986W        W 3083   6.158   6.669   0.417
 1987W        W 3084   5.978   6.409   7.972
 1988W        W 3085   0.269   7.387   6.893
 1989W        W 3086   1.743   0.471   0.630
 1990W        W 3087   1.577   2.440   5.147
 1991W        W 3088   7.111   7.278   4.656
 1992W        W 3089   1.952   0.956   5.126
 1993W        W 3090   2.091   6.296   2.492
 1994W        W 3091   5.833   4.212   7.025
 1995W        W 3092   6.103   7.816   5.370
 1996W        W 3093   2.195   1.350   0.629
 1997W        W 3094   6.787   0.197   5.910
 1998W        W 3095   4.989   6.540   4.186
 1999W        W 3096   6.563   5.556   5.020
 2000W        W 3097   5.274   1.725   5.615
 2001W        W 3098   5.071   0.049   7.474
 2002W        W 3099   3.907   5.243   0.929
 2003W        W 3100   5.419   3.832   4.446
 2004W        W 3101   4.996   1.314   4.103
 2005W        W 3102   3.636   5.751   5.332
 2006W        W 3103   4.526   2.185   4.056
 2007W        W 3104   6.967   7.000   4.185
 2008W        W 3105   1.482   0.484   5.747
 2009W        W 3106   0.352   2.979   7.104
 2010W        W 3107   2.704   4.006   2.312
 2011W        W 3108   6.646   3.408   0.787
 2012W        W 3109   6.727   4.011   5.979
 2013W        W 3110   2.677   6.077   0.471
 2014W        W 3111   7.571   2.385   2.116
 2015W        W 3112   2.645   4.123   0.748
 2016W        W 3113   4.709   5.542   4.511
 2017W        W 3114   5.330   2.981   6.627
 2018W        W 3115   3.134   2.681   6.068
 2019W        W 3116   4.911   4.082   3.172
 2020W        W 3117   2.679   6.536   4.189
 2021W        W 3118   7.745   2.673   6.459
 2022W        W 3119   4.242   1.215   0.167
 2023W        W 3120   6.567   0.948   5.170
 2024W        W 3121   4.093   1.519   3.136
 2025W        W 3122   1.736   5.963   4.229
 2026W        W 3123   4.796   0.626   1.661
 2027W        W 3124   6.809   6.931   6.976
 2028W        W 3125   5.399   5.446   0.174
 2029W        W 3126   1.203   2.590   1.483
 2030W        W 3127   4.795   0.406   4.781
 2031W        W 3128   6.483   3.055   4.814
 2032W        W 3129   4.412   1.285   1.633
 2033W        W 3130   3.315   6.134   4.662
 2034W        W 3131   5.912   6.025   2.565
 2035W        W 3132   3.728   6.920   1.401
 2036W        W 3133   7.826   4.816   6.347
 2037W        W 3134   5.414   6.479   2.171
 2038W        W 3135   7.319   2.841   5.251
 2039W        W 3136   6.163   1.525   0.281
 2040W        W 3137   6.665   1.323   4.816
 2041W        W 3138   5.044   5.887   6.979
 2042W        W 3139   6.377   5.791   4.586
 2043W        W 3140   1.995   0.414   3.601
 2044W        W 3141   0.671   0.891   5.678
 2045W        W 3142   7.553   3.681   2.170
 2046W        W 3143   6.973   4.923   1.087
 2047W        W 3144   6.502   1.444   0.672
 2048W        W 3145   3.844   0.878   0.076
 2049W        W 3146   0.835   2.862   4.518
 2050W        W 3147   3.423   6.623   7.652
 2051W        W 3148   4.504   1.264   4.190
 2052W        W 3149   6.938   0.557   6.258
 2053W        W 3150   1.583   2.230   3.898
 2054W        W 3151   2.881   2.356   1.448
 2055W        W 3152   7.250   2.729   0.538
 2056W        W 3153   2.803   1.505   2.582
 2057W        W 3154   5.549   6.666   3.670
 2058W        W 3155   3.966   3.755   7.946
 2059W        W 3156   1.346   2.178   7.608
 2060W        W 3157   6.072   4.915   2.010
 2061W        W 3158   1.619   1.180   4.812
 2062W        W 3159   3.021   7.076   1.809
 2063W        W 3160   0.005   6.475   3.628
 2064W        W 3161   7.862   2.724   1.284
 2065W        W 3162   6.366   4.830   6.055
 2066W        W 3163   3.817   2.936   7.544
 2067W        W 3164   4.958   5.658   4.087
 2068W        W 3165   5.936   5.121   6.120
 2069W        W 3166   2.188   3.508   6.165
 2070W        W 3167   6.061   5.534   2.622
 2071W        W 3168   6.534   6.279   4.647
 2072W        W 3169   6.146   0.682   5.873
 2073W        W 3170   2.053   5.872   2.204
 2074W        W 3171   6.235   2.434   4.352
 2075W        W 3172   6.103   2.691   4.790
 2076W        W 3173   6.965   6.664   5.447
 2077W        W 3174   3.213   4.957   7.238
 2078W        W 3175   1.479   2.789   3.035
 2079W        W 3176   6.864   3.314   3.322
 2080W        W 3177   2.181   4.782   2.437
 2081W        W 3178   4.719   7.257   6.086
 2082W        W 3179   1.742   1.279   0.392
 2083W        W 3180   1.704   2.287   5.623
 2084W        W 3181   6.272   6.696   2.658
 2085W        W 3182   6.584   5.231   6.521
 2086W        W 3183   0.254   5.950   4.572
 2087W        W 3184   5.978   6.618   4.433
 2088W        W 3185   6.040   5.379   0.972
 2089W        W 3186   4.008   6.704   3.496
 2090W        W 3187   1.777   3.480   2.283
 2091W        W 3188   5.798   5.390   3.342
 2092W        W 3189   5.105   5.895   3.639
 2093W        W 3190   1.871   0.855   1.251
 2094W        W 3191   6.857   7.315   3.243
 2095W        W 3192   6.188   3.715   1.632
 2096W        W 3193   1.853   2.863   4.960
 2097W        W 3194   6.404   7.152   2.535
 2098W        W 3195   3.226   6.928   5.835
 2099W        W 3196   4.443   7.833   0.675
 2100W        W 3197   3.549   6.269   6.327
 2101W        W 3198   5.956   4.170   1.799
 2102W        W 3199   4.321   3.294   6.860
 2103W        W 3200   7.250   6.001   2.671
 2104W        W 3201   4.089   3.255   2.585
 2105W        W 3202   1.294   1.647   4.665
 2106W        W 3203   5.536   7.318   0.801
 2107W        W 3204   5.180   3.714   2.953
 2108W        W 3205   2.176   4.209   6.772
 2109W        W 3206   2.832   5.437   4.781
 2110W        W 3207   5.051   1.520   6.022
 2111W        W 3208   7.094   6.854   3.383
 2112W        W 3209   5.725   3.795   5.193
 2113W        W 3210   1.413   4.706   2.352
 2114W        W 3211   5.060   3.040   4.186
 2115W        W 3212   2.411   0.702   3.550
 2116W        W 3213   1.163   2.490   3.812
 2117W        W 3214   2.061   3.402   3.325
 2118W        W 3215   1.888   3.804   5.210
 2119W        W 3216   5.703   4.018   6.588
 2120W        W 3217   5.138   3.126   4.874
 2121W        W 3218   4.968   5.509   3.247
 2122W        W 3219   6.872   3.404   4.925
 2123W        W 3220   3.737   5.411   3.361
 2124W        W 3221   1.829   3.030   2.060
 2125W        W 3222   3.094   1.206   7.668
 2126W        W 3223   6.310   6.179   7.548
 2127W        W 3224   7.874   7.144   4.603
 2128W        W 3225   6.500   4.631   3.376
 2129W        W 3226   6.868   7.625   6.290
 2130W        W 3227   2.128   2.465   0.969
 2131W        W 3228   6.651   3.045   1.178
 2132W        W 3229   5.175   6.281   1.312
 2133W        W 3230   3.478   7.447   6.432
 2134W        W 3231   3.353   5.795   1.891
 2135W        W 3232   1.614   0.570   5.138
 2136W        W 3233   1.622   0.707   4.155
 2137W        W 3234   3.034   6.309   1.206
 2138W        W 3235   1.473   4.034   5.004
 2139W        W 3236   5.104   5.500   7.325
 2140W        W 3237   6.677   4.611   7.029
 2141W        W 3238   4.503   1.263   5.215
 2142W        W 3239   1.928   2.944   0.943
 2143W        W 3240   5.362   0.102   7.905
 2144W        W 3241   5.397   5.733   5.336
 2145W        W 3242   5.081   6.372   0.784
 2146W        W 3243   5.546   1.355   3.490
 2147W        W 3244   1.163   5.060   5.485
 2148W        W 3245   2.734   1.134   4.985
 2149W        W 3246   1.417   3.628   7.810
 2150W        W 3247   3.385   1.831   4.793
 2151W        W 3248   6.330   5.840   7.164
 2152W        W 3249   3.773   0.582   6.234
 2153W        W 3250   7.299   5.787   4.571
 2154W        W 3251   4.677   6.843   2.502
 2155W        W 3252   3.194   5.371   1.682
 2156W        W 3253   3.887   3.765   0.470
 2157W        W 3254   5.030   2.164   3.995
 2158W        W 3255   4.121   2.125   1.959
 2159W        W 3256   2.734   5.573   1.807
 2160W        W 3257   4.717   2.469   3.658
 2161W        W 3258   3.974   1.087   1.930
 2162W        W 3259   2.278   5.766   1.692
 2163W        W 3260   2.339   0.710   1.433
 2164W        W 3261   5.758   4.839   3.355
 2165W        W 3262   2.585   1.054   2.659
 2166W        W 3263   6.513   2.883   6.638
 2167W        W 3264   7.608   1.575   6.656
 2168W        W 3265   7.775   3.422   3.508
 2169W        W 3266   3.735   4.171   3.178
 2170W        W 3267   4.832   6.215   5.852
 2171W        W 3268   2.240   6.785   2.445
 2172W        W 3269   0.237   1.240   1.995
 2173W        W 3270   6.381   1.410   5.988
 2174W        W 3271   3.492   3.646   0.099
 2175W        W 3272   2.346   4.273   7.680
 2176W        W 3273   4.509   3.835   4.131
 2177W        W 3274   1.163   3.698   3.343
 2178W        W 3275   6.384   5.245   2.298
 2179W        W 3276   6.425   1.774   3.630
 2180W        W 3277   4.855   2.578   4.179
 2181W        W 3278   4.738   1.981   3.639
 2182W        W 3279   3.653   3.533   2.527
 2183W        W 3280   1.856   5.142   0.775
 2184W        W 3281   4.746   6.970   3.817
 2185W        W 3282   0.599   6.033   4.932
 2186W        W 3283   7.602   6.375   2.826
 2187W        W 3284   6.138   1.230   5.130
 2188W        W 3285   0.434   2.022   2.320
 2189W        W 3286   4.807   2.862   7.350
 2190W        W 3287   1.681   1.466   4.394
 2191W        W 3288   7.637   3.144   5.844
 2192W        W 3289   6.825   1.807   4.920
 2193W        W 3290   6.219   5.067   3.355
 2194W        W 3291   5.839   2.855   1.595
 2195W        W 3292   3.159   4.006   1.238
 2196W        W 3293   1.098   7.448   6.592
 2197W        W 3294   3.550   5.840   6.588
 2198W        W 3295   3.575   3.813   6.557
 2199W        W 3296   2.872   6.295   2.966
 2200W        W 3297   2.559   5.368   3.590
 2201W        W 3298   6.033   6.152   4.619
 2202W        W 3299   1.829   2.053   0.973
 2203W        W 3300   4.430   0.682   2.613
 2204W        W 3301   1.006   5.719   4.948
 2205W        W 3302   7.322   2.254   1.664
 2206W        W 3303   1.486   1.844   6.291
 2207W        W 3304   7.875   2.801   2.073
 2208W        W 3305   4.742   4.794   4.846
 2209W        W 3306   6.111   5.751   5.341
 2210W        W 3307   3.220   2.043   2.939
 2211W        W 3308   6.185   5.935   0.004
 2212W        W 3309   3.931   2.100   7.407
 2213W        W 3310   4.203   2.614   1.829
 2214W        W 3311   6.314   3.424   4.297
 2215W        W 3312   4.160   1.295   3.791
 2216W        W 3313   5.743   5.998   1.256
 2217W        W 3314   3.368   5.337   2.174
 2218W        W 3315   2.793   4.725   7.438
 2219W        W 3316   2.081   4.648   3.387
 2220W        W 3317   7.712   6.010   2.426
 2221W        W 3318   5.461   5.887   7.281
 2222W        W 3319   4.593   3.473   4.499
 2223W        W 3320   1.013   3.354   4.587
 2224W        W 3321   2.659   1.689   3.475
 2225W        W 3322   5.836   6.792   5.726
 2226W        W 3323   4.090   2.127   0.384
 2227W        W 3324   2.685   5.590   5.681
 2228W        W 3325   0.532   2.794   4.097
 2229W        W 3326   1.158   6.935   6.669
 2230W        W 3327   2.355   2.305   0.536
 2231W        W 3328   7.938   3.089   6.810
 2232W        W 3329   2.157   1.850   0.648
 2233W        W 3330   1.555   0.931   7.255
 2234W        W 3331   6.954   2.783   6.899
 2235W        W 3332   2.409   2.833   0.198
 2236W        W 3333   0.335   2.433   2.619
 2237W        W 3334   6.878   4.411   1.917
 2238W        W 3335   7.701   6.176   3.354
 2239W        W 3336   2.350   5.340   3.128
 2240W        W 3337   5.263   0.432   1.593
 2241W        W 3338   6.317   1.976   4.088
 2242W        W 3339   6.036   2.722   7.722
 2243W        W 3340   0.636   2.017   3.750
 2244W        W 3341   2.845   4.371   7.809
 2245W        W 3342   0.440   0.515   5.945
 2246W        W 3343   3.771   5.620   2.251
 2247W        W 3344   6.001   1.502   0.815
 2248W        W 3345   0.851   5.249   5.090
 2249W        W 3346   4.566   0.580   0.885
 2250W        W 3347   5.925   6.579   6.948
 2251W        W 3348   4.754   4.308   4.218
 2252W        W 3349   0.759   5.521   3.003
 2253W        W 3350   1.946   6.511   5.120
 2254W        W 3351   5.734   2.864   6.091
 2255W        W 3352   5.414   0.231   0.660
 2256W        W 3353   5.921   1.238   3.811
 2257W        W 3354   1.416   0.714   1.534
 2258W        W 3355   2.667   1.632   5.050
 2259W        W 3356   2.683   6.466   5.647
 2260W        W 3357   0.727   4.733   2.851
 2261W        W 3358   7.909   2.464   1.709
 2262W        W 3359   6.061   3.613   5.560
 2263W        W 3360   6.249   3.422   2.397
 2264W        W 3361   7.789   3.821   5.314
 2265W        W 3362   6.807   3.511   6.164
 2266W        W 3363   0.407   6.279   6.428
 2267W        W 3364   3.566   0.887   0.556
 2268W        W 3365   2.044   1.839   5.617
 2269W        W 3366   6.784   7.163   6.053
 2270W        W 3367   0.597   1.289   4.942
 2271W        W 3368   3.514   5.690   1.396
 2272W        W 3369   5.888   3.723   2.597
 2273W        W 3370   4.403   6.841   5.586
 2274W        W 3371   1.669   2.140   6.937
 2275W        W 3372   6.225   0.622   0.650
 2276W        W 3373   3.658   3.404   1.627
 2277W        W 3374   0.784   2.147   6.769
 2278W        W 3375   6.141   7.463   7.784
 2279W        W 3376   1.452   2.230   1.239
 2280W        W 3377   1.739   7.186   2.706
 2281W        W 3378   5.735   3.077   6.916
 2282W        W 3379   2.213   1.837   2.760
 2283W        W 3380   4.422   3.455   5.177
 2284W        W 3381   0.029   3.588   2.368
 2285W        W 3382   0.342   4.424   0.837
 2286W        W 3383   5.556   1.587   7.735
 2287W        W 3384   5.418   6.978   2.067
 2288W        W 3385   3.858   7.637   1.347
 2289W        W 3386   7.723   5.356   5.702
 2290W        W 3387   6.586   4.820   2.063
 2291W        W 3388   3.120   3.229   4.796
 2292W        W 3389   0.003   6.430   4.484
 2293W        W 3390   4.024   5.718   5.008
 2294W        W 3391   6.004   5.562   0.384
 2295W        W 3392   7.331   1.195   6.786
 2296W        W 3393   6.619   0.627   5.659
 2297W        W 3394   7.046   5.745   1.162
 2298W        W 3395   2.989   1.311   3.519
 2299W        W 3396   0.931   1.866   2.318
 2300W        W 3397   4.406   5.877   4.219
 2301W        W 3398   3.558   3.216   7.217
 2302W        W 3399   4.314   6.034   0.869
 2303W        W 3400   4.383   6.866   0.307
 2304W        W 3401   1.892   6.367   0.628
 2305W        W 3402   3.657   2.160   6.972
 2306W        W 3403   1.473   6.766   0.025
 2307W        W 3404   0.596   6.967   5.327
 2308W        W 3405   4.230   1.548   2.024
 2309W        W 3406   1.188   0.840   7.588
 2310W        W 3407   3.735   4.780   5.559
 2311W        W 3408   1.859   1.249   5.940
 2312W        W 3409   7.432   2.570   3.587
 2313W        W 3410   3.200   4.911   0.412
 2314W        W 3411   5.176   1.156   2.773
 2315W        W 3412   1.820   6.055   1.021
 2316W        W 3413   5.673   5.077   7.925
 2317W        W 3414   2.868   7.342   2.225
 2318W        W 3415   3.178   3.251   1.708
 2319W        W 3416   5.610   4.654   0.226
 2320W        W 3417   0.568   0.948   1.095
 2321W        W 3418   0.280   2.075   6.946
 2322W        W 3419   5.162   6.129   1.839
 2323W        W 3420   4.848   1.033   0.866
 2324W        W 3421   6.748   3.980   0.554
 2325W        W 3422   5.698   4.579   0.738
 2326W        W 3423   0.675   2.950   6.146
 2327W        W 3424   5.182   5.201   1.101
 2328W        W 3425   0.603   5.231   1.983
 2329W        W 3426   0.892   7.954   6.547
 2330W        W 3427   6.291   0.661   7.269
 2331W        W 3428   3.526   0.830   2.792
 2332W        W 3429   3.133   3.999   7.994
 2333W        W 3430   2.223   5.458   7.900
 2334W        W 3431   6.951   2.473   5.295
 2335W        W 3432   5.239   3.624   5.273
 2336W        W 3433   2.653   3.859   7.879
 2337W        W 3434   1.975   0.608   7.247
 2338W        W 3435   5.155   4.755   1.364
 2339W        W 3436   2.369   3.752   3.563
 2340W        W 3437   5.559   7.189   3.640
 2341W        W 3438   6.408   5.355   0.627
 2342W        W 3439   4.466   2.524   1.206
 2343W        W 3440   3.865   7.146   6.589
 2344W        W 3441   2.856   0.596   5.397
 2345W        W 3442   1.285   0.067   6.866
 2346W        W 3443   4.547   4.317   0.470
 2347W        W 3444   6.878   2.343   5.828
 2348W        W 3445   6.588   0.766   6.582
 2349W        W 3446   3.849   1.688   3.576
 2350W        W 3447   7.003   3.536   2.063
 2351W        W 3448   3.559   1.373   1.996
 2352W        W 3449   2.137   5.235   6.281
 2353W        W 3450   1.788   3.343   5.034
 2354W        W 3451   5.011   0.047   5.086
 2355W        W 3452   4.369   1.743   4.477
 2356W        W 3453   4.813   1.515   4.522
 2357W        W 3454   4.085   6.666   5.246
 2358W        W 3455   6.182   1.889   5.999
 2359W        W 3456   0.033   6.081   4.119
 2360W        W 3457   5.874   2.231   4.083
 2361W        W 3458   5.441   3.883   7.048
 2362W        W 3459   1.408   2.945   1.144
 2363W        W 3460   3.205   2.522   3.209
 2364W        W 3461   0.599   4.585   5.852
 2365W        W 3462   5.691   6.874   3.245
 2366W        W 3463   4.021   4.263   1.678
 2367W        W 3464   4.076   2.268   0.982
 2368W        W 3465   5.656   5.169   4.694
 2369W        W 3466   0.594   3.643   0.274
 2370W        W 3467   0.653   2.000   4.760
 2371W        W 3468   4.143   7.202   1.390
 2372W        W 3469   2.848   1.444   0.627
 2373W        W 3470   7.412   1.279   6.274
 2374W        W 3471   1.641   5.098   2.668
 2375W        W 3472   5.628   2.952   2.974
 2376W        W 3473   5.078   3.912   4.070
 2377W        W 3474   0.201   7.268   3.420
 2378W        W 3475   0.067   5.309   6.484
 2379W        W 3476   5.338   1.602   5.132
 2380W        W 3477   0.710   6.797   4.234
 2381W        W 3478   2.812   1.930   1.186
 2382W        W 3479   5.715   5.117   0.418
 2383W        W 3480   2.179   6.136   1.359
 2384W        W 3481   0.529   6.705   6.150
 2385W        W 3482   3.457   3.634   3.259
 2386W        W 3483   2.849   5.827   6.114
 2387W        W 3484   1.896   3.821   6.934
 2388W        W 3485   1.839   4.226   1.746
 2389W        W 3486   6.045   4.392   3.400
 2390W        W 3487   2.852   3.656   5.387
 2391W        W 3488   0.048   5.766   5.596
 2392W        W 3489   6.100   2.810   2.965
 2393W        W 3490   2.620   2.362   1.003
 2394W        W 3491   0.944   7.229   7.544
 2395W        W 3492   7.016   3.576   2.889
 2396W        W 3493   2.561   2.749   0.682
 2397W        W 3494   1.999   7.089   3.785
 2398W        W 3495   0.601   1.930   3.228
 2399W        W 3496   3.584   6.237   6.897
 2400W        W 3497   5.347   6.649   2.989
 2401W        W 3498   6.224   5.518   6.280
 2402W        W 3499   3.934   7.770   5.721
 2403W        W 3500   1.616   1.150   2.441
 2404W        W 3501   4.023   6.486   5.703
 2405W        W 3502   0.791   0.913   6.575
 2406W        W 3503   1.979   2.015   1.917
 2407W        W 3504   7.552   5.761   5.405
 2408W        W 3505   3.708   1.922   1.686
 2409W        W 3506   6.080   6.893   1.477
 2410W        W 3507   5.459   4.439   5.764
 2411W        W 3508   2.577   5.777   3.089
 2412W        W 3509   5.196   4.303   4.511
 2413W        W 3510   1.587   3.072   0.576
 2414W        W 3511   3.986   6.255   6.579
 2415W        W 3512   5.298   5.823   1.461
 2416W        W 3513   4.564   4.889   2.670
 2417W        W 3514   4.130   3.673   4.441
 2418W        W 3515   2.501   1.956   5.477
 2419W        W 3516   4.174   4.559   2.833
 2420W        W 3517   2.779   5.115   1.574
 2421W        W 3518   4.359   1.200   6.337
 2422W        W 3519   5.906   0.687   6.318
 2423W        W 3520   2.440   0.449   7.414
 2424W        W 3521   5.652   0.048   7.489
 2425W        W 3522   7.324   4.801   6.211
 2426W        W 3523   2.916   5.568   2.282
 2427W        W 3524   1.123   2.094   1.597
 2428W        W 3525   2.493   3.723   5.801
 2429W        W 3526   7.748   6.126   4.799
 2430W        W 3527   7.373   5.855   3.570
 2431W        W 3528   1.966   3.883   6.444
 2432W        W 3529   6.667   1.842   6.776
 2433W        W 3530   3.363   5.311   3.021
 2434W        W 3531   7.713   3.178   2.984
 2435W        W 3532   3.230   3.948   5.644
 2436W        W 3533   6.609   2.521   2.107
 2437W        W 3534   3.015   5.786   0.931
 2438W        W 3535   5.478   1.980   3.892
 2439W        W 3536   6.432   1.118   7.505
 2440W        W 3537   3.090   3.245   2.236
 2441W        W 3538   0.795   6.312   4.049
 2442W        W 3539   2.943   2.742   1.067
 2443W        W 3540   4.831   1.851   3.184
 2444W        W 3541   6.708   6.537   6.624
 2445W        W 3542   5.165   6.910   3.411
 2446W        W 3543   3.360   6.572   4.918
 2447W        W 3544   0.728   7.165   6.837
 2448W        W 3545   5.324   5.945   0.972
 2449W        W 3546   6.899   5.180   5.307
 2450W        W 3547   7.306   4.429   5.258
 2451W        W 3548   6.649   4.103   6.811
 2452W        W 3549   6.720   6.208   7.187
 2453W        W 3550   4.723   6.526   1.136
 2454W        W 3551   5.195   0.584   4.485
 2455W        W 3552   7.321   1.893   1.087
 2456W        W 3553   3.641   5.750   7.098
 2457W        W 3554   2.500   2.038   1.620
 2458W        W 3555   6.386   2.246   5.705
 2459W        W 3556   0.650   3.391   7.393
 2460W        W 3557   4.301   5.023   4.762
 2461W        W 3558   1.168   2.264   2.085
 2462W        W 3559   4.974   2.330   5.971
 2463W        W 3560   2.898   6.820   1.206
 2464W        W 3561   0.720   4.251   6.793
 2465W        W 3562   2.334   1.379   7.205
 2466W        W 3563   1.346   1.001   5.201
 2467W        W 3564   3.982   2.570   4.604
 2468W        W 3565   1.607   4.891   3.257
 2469W        W 3566   6.426   4.546   1.655
 2470W        W 3567   3.413   6.176   3.810
 2471W        W 3568   5.088   1.858   4.772
 2472W        W 3569   7.467   3.916   6.441
 2473W        W 3570   3.024   4.647   0.815
 2474W        W 3571   7.490   6.121   6.771
 2475W        W 3572   1.899   5.723   7.630
 2476W        W 3573   5.341   1.474   0.195
 2477W        W 3574   5.438   3.329   7.733
 2478W        W 3575   4.853   4.376   2.248
 2479W        W 3576   0.233   5.597   6.922
 2480W        W 3577   6.584   6.989   5.326
 2481W        W 3578   1.820   2.240   0.493
 2482W        W 3579   4.688   4.356   2.750
 2483W        W 3580   3.739   7.159   7.084
 2484W        W 3581   1.994   1.723   6.095
 2485W        W 3582   3.423   2.220   7.430
 2486W        W 3583   2.691   5.442   2.726
 2487W        W 3584   6.311   6.649   2.105
 2488W        W 3585   2.549   3.853   1.176
 2489W        W 3586   0.925   4.321   3.094
 2490W        W 3587   0.791   2.338   4.122
 2491W        W 3588   6.331   3.006   1.590
 2492W        W 3589   5.098   0.509   6.234
 2493W        W 3590   4.898   2.753   5.162
 2494W        W 3591   3.155   7.424   5.943
 2495W        W 3592   5.775   5.705   3.753
 2496W        W 3593   2.874   2.370   0.550
 2497W        W 3594   2.087   3.994   5.982
 2498W        W 3595   1.436   2.725   5.715
 2499W        W 3596   5.415   0.870   2.432
 2500W        W 3597   7.292   7.379   2.539
 2501W        W 3598   1.066   2.710   6.432
 2502W        W 3599   4.661   2.933   3.868
 2503W        W 3600   6.233   2.688   0.199
 2504W        W 3601   1.234   5.030   7.294
 2505W        W 3602   0.180   2.298   0.688
 2506W        W 3603   0.913   6.019   3.080
 2507W        W 3604   3.859   4.192   2.645
 2508W        W 3605   3.579   2.397   1.278
 2509W        W 3606   5.817   2.463   1.944
 2510W        W 3607   6.662   5.361   7.328
 2511W        W 3608   4.734   0.257   2.515
 2512W        W 3609   7.102   2.557   1.994
 2513W        W 3610   4.210   3.403   0.232
 2514W        W 3611   1.429   0.287   2.859
 2515W        W 3612   3.116   4.390   6.031
 2516W        W 3613   0.603   4.696   1.204
 2517W        W 3614   0.242   3.621   6.086
 2518W        W 3615   4.128   6.002   2.289
 2519W        W 3616   4.780   1.482   1.906
 2520W        W 3617   5.426   4.933   2.333
 2521W        W 3618   4.508   5.709   3.204
 2522W        W 3619   1.016   4.950   1.035
 2523W        W 3620   3.233   2.297   4.919
 2524W        W 3621   7.178   5.361   4.313
 2525W        W 3622   5.192   5.342   5.613
 2526W        W 3623   1.143   1.298   2.260
 2527W        W 3624   3.675   1.696   4.104
 2528W        W 3625   7.558   1.474   2.311
 2529W        W 3626   4.187   5.311   3.144
 2530W        W 3627   0.718   2.623   4.990
 2531W        W 3628   2.394   5.759   4.819
 2532W        W 3629   1.153   6.445   3.631
 2533W        W 3630   4.766   7.448   5.128
 2534W        W 3631   1.330   2.931   4.641
 2535W        W 3632   1.667   1.187   3.969
 2536W        W 3633   3.819   7.084   5.261
 2537W        W 3634   1.237   2.155   2.600
 2538W        W 3635   0.994   5.564   5.455
 2539W        W 3636   2.409   0.764   2.286
 2540W        W 3637   4.047   4.200   2.172
 2541W        W 3638   6.360   6.390   3.059
 2542W        W 3639   0.717   6.688   6.610
 2543W        W 3640   7.405   3.000   6.679
 2544W        W 3641   5.605   6.164   3.698
 2545W        W 3642   4.880   5.013   7.421
 2546W        W 3643   6.401   5.880   0.514
 2547W        W 3644   4.760   5.708   5.760
 2548W        W 3645   2.018   1.064   3.420
 2549W        W 3646   6.450   2.133   7.140
 2550W        W 3647   0.798   6.739   2.465
 2551W        W 3648   2.313   2.821   2.115
 2552W        W 3649   5.831   3.918   3.522
 2553W        W 3650   7.056   1.998   5.474
 2554W        W 3651   5.046   7.276   7.842
 2555W        W 3652   0.085   1.627   2.331
 2556W        W 3653   6.564   3.207   7.044
 2557W        W 3654   6.923   4.345   4.924
 2558W        W 3655   6.002   6.937   3.644
 2559W        W 3656   3.405   4.450   1.102
 2560W        W 3657   1.398   4.830   6.833
 2561W        W 3658   0.872   3.981   6.263
 2562W        W 3659   6.766   2.792   1.686
 2563W        W 3660   2.484   0.668   0.884
 2564W        W 3661   2.145   1.324   4.825
 2565W        W 3662   2.568   6.707   2.991
 2566W        W 3663   4.338   4.593   6.792
 2567W        W 3664   6.256   4.305   6.096
 2568W        W 3665   6.312   1.121   0.015
 2569W        W 3666   1.942   6.551   0.149
 2570W        W 3667   5.816   3.551   4.262
 2571W        W 3668   1.092   1.218   4.827
 2572W        W 3669   4.305   7.742   1.562
 2573W        W 3670   3.747   7.326   7.642
 2574W        W 3671   4.794   4.023   5.215
 2575W        W 3672   0.702   5.269   4.202
 2576W        W 3673   2.035   1.823   7.143
 2577W        W 3674   6.928   6.061   6.722
 2578W        W 3675   2.031   6.170   7.800
 2579W        W 3676   2.202   6.119   0.313
 2580W        W 3677   3.166   5.894   6.927
 2581W        W 3678   4.113   3.651   6.475
 2582W        W 3679   6.460   6.318   0.192
 2583W        W 3680   2.808   1.062   0.956
 2584W        W 3681   1.726   1.421   6.409
 2585W        W 3682   5.649   2.672   5.618
 2586W        W 3683   4.416   1.851   2.893
 2587W        W 3684   1.483   1.937   3.459
 2588W        W 3685   6.547   7.917   7.102
 2589W        W 3686   4.774   4.653   1.678
 2590W        W 3687   1.825   7.241   3.218
 2591W        W 3688   6.622   5.520   2.682
 2592W        W 3689   4.018   0.134   2.289
 2593W        W 3690   3.886   5.780   1.000
 2594W        W 3691   0.663   2.851   2.624
 2595W        W 3692   2.829   1.687   2.101
 2596W        W 3693   3.479   5.887   0.533
 2597W        W 3694   3.319   1.710   5.676
 2598W        W 3695   1.330   7.270   3.037
 2599W        W 3696   4.748   7.090   7.414
 2600W        W 3697   1.159   6.078   0.851
 2601W        W 3698   4.120   1.662   7.583
 2602W        W 3699   3.109   5.601   6.494
 2603W        W 3700   2.082   2.234   5.283
 2604W        W 3701   3.217   2.740   1.513
 2605W        W 3702   1.094   2.513   0.989
 2606W        W 3703   0.200   5.925   1.681
 2607W        W 3704   7.558   2.326   1.227
 2608W        W 3705   5.217   2.312   4.611
 2609W        W 3706   3.309   0.824   6.043
 2610W        W 3707   0.325   2.472   2.065
 2611W        W 3708   6.907   2.631   6.404
 2612W        W 3709   5.189   7.484   6.163
 2613W        W 3710   6.964   4.958   5.771
 2614W        W 3711   6.954   7.226   5.566
 2615W        W 3712   5.047   6.006   3.147
 2616W        W 3713   2.560   3.482   4.483
 2617W        W 3714   3.364   6.947   1.052
 2618W        W 3715   4.319   4.150   4.461
 2619W        W 3716   5.309   6.778   5.687
 2620W        W 3717   1.440   6.552   6.514
 2621W        W 3718   2.585   1.564   1.517
 2622W        W 3719   2.714   2.682   1.808
 2623W        W 3720   1.095   4.300   7.902
 2624W        W 3721   1.499   5.710   2.123
 2625W        W 3722   4.818   6.746   5.844
 2626W        W 3723   0.220   3.982   1.199
 2627W        W 3724   5.464   4.058   1.979
 2628W        W 3725   3.698   4.962   7.035
 2629W        W 3726   2.287   3.566   6.671
 2630W        W 3727   7.120   6.083   3.986
 2631W        W 3728   1.568   2.332   1.757
 2632W        W 3729   1.487   3.783   6.569
 2633W        W 3730   0.836   4.744   5.081
 2634W        W 3731   5.845   1.762   2.616
 2635W        W 3732   5.809   5.479   5.066
 2636W        W 3733   4.209   6.742   6.551
 2637W        W 3734   4.162   3.008   3.059
 2638W        W 3735   2.119   5.460   3.862
 2639W        W 3736   1.365   3.423   5.790
 2640W        W 3737   7.366   1.535   7.171
 2641W        W 3738   2.404   1.920   2.261
 2642W        W 3739   3.715   0.730   6.706
 2643W        W 3740   3.009   3.072   3.751
 2644W        W 3741   5.135   1.346   1.189
 2645W        W 3742   6.092   2.531   5.381
 2646W        W 3743   3.922   6.590   6.178
 2647W        W 3744   5.152   7.983   6.250
 2648W        W 3745   4.872   0.757   2.938
 2649W        W 3746   0.324   5.338   5.609
 2650W        W 3747   4.242   6.317   4.446
 2651W        W 3748   3.517   6.508   5.891
 2652W        W 3749   5.188   0.813   1.949
 2653W        W 3750   0.094   5.837   5.059
 2654W        W 3751   2.453   6.631   4.647
 2655W        W 3752   3.155   4.149   0.733
 2656W        W 3753   6.363   1.283   3.580
 2657W        W 3754   1.483   6.243   1.822
 2658W        W 3755   1.376   4.315   0.751
 2659W        W 3756   5.020   4.119   7.273
 2660W        W 3757   5.231   3.736   7.494
 2661W        W 3758   3.428   7.663   1.088
 2662W        W 3759   5.094   0.023   0.322
 2663W        W 3760   4.802   6.025   1.024
 2664W        W 3761   7.523   6.443   1.240
 2665W        W 3762   6.628   0.234   6.634
 2666W        W 3763   0.174   0.943   5.729
 2667W        W 3764   0.753   0.544   7.453
 2668W        W 3765   2.030   5.599   4.482
 2669W        W 3766   5.964   0.218   6.101
 2670W        W 3767   3.687   7.398   5.973
 2671W        W 3768   6.812   6.001   2.974
 2672W        W 3769   4.883   0.292   7.899
 2673W        W 3770   4.487   5.493   1.559
 2674W        W 3771   3.579   4.147   1.485
 2675W        W 3772   3.658   3.828   4.358
 2676W        W 3773   1.639   3.850   0.826
 2677W        W 3774   5.608   0.712   1.278
 2678W        W 3775   3.603   1.719   7.474
 2679W        W 3776   5.675   1.591   6.735
 2680W        W 3777   2.709   2.778   6.878
 2681W        W 3778   1.688   6.879   1.164
 2682W        W 3779   6.906   4.937   4.518
 2683W        W 3780   7.323   6.329   1.705
 2684W        W 3781   2.461   3.920   6.332
 2685W        W 3782   1.815   5.893   2.665
 2686W        W 3783   5.996   0.019   3.574
 2687W        W 3784   5.768   3.293   2.343
 2688W        W 3785   5.400   1.505   4.635
 2689W        W 3786   4.870   5.144   1.529
 2690W        W 3787   4.351   7.633   4.869
 2691W        W 3788   3.911   7.896   4.931
 2692W        W 3789   6.077   4.679   6.942
 2693W        W 3790   1.703   1.108   3.045
 2694W        W 3791   2.988   5.313   6.034
 2695W        W 3792   0.216   6.379   1.091
 2696W        W 3793   0.977   1.320   5.376
 2697W        W 3794   6.051   6.624   0.958
 2698W        W 3795   0.461   1.277   5.429
 2699W        W 3796   1.597   3.511   0.268
 2700W        W 3797   2.600   6.433   2.531
 2701W        W 3798   3.569   2.408   2.835
 2702W        W 3799   1.783   4.625   2.724
 2703W        W 3800   4.740   5.111   7.915
 2704W        W 3801   4.274   3.494   3.000
 2705W        W 3802   0.921   5.959   1.333
 2706W        W 3803   6.891   6.678   3.800
 2707W        W 3804   3.689   5.772   3.712
 2708W        W 3805   2.243   3.136   4.813
 2709W        W 3806   0.826   5.997   4.488
 2710W        W 3807   7.503   6.756   6.245
 2711W        W 3808   2.291   2.323   2.868
 2712W        W 3809   2.230   6.313   5.487
 2713W        W 3810   7.199   2.309   3.209
 2714W        W 3811   2.532   7.217   5.278
 2715W        W 3812   0.446   2.956   1.964
 2716W        W 3813   7.174   4.141   6.815
 2717W        W 3814   4.759   1.585   7.510
 2718W        W 3815   6.128   7.865   4.056
 2719W        W 3816   2.053   6.583   3.764
 2720W        W 3817   4.318   1.961   6.355
 2721W        W 3818   6.358   6.257   2.435
 2722W        W 3819   0.622   4.851   0.697
 2723W        W 3820   2.567   7.703   5.578
 2724W        W 3821   4.343   3.343   4.068
 2725W        W 3822   6.252   5.524   6.792
 2726W        W 3823   7.609   3.617   2.675
 2727W        W 3824   6.542   1.072   7.004
 2728W        W 3825   2.514   0.843   4.169
 2729W        W 3826   7.496   2.323   2.785
 2730W        W 3827   2.947   0.280   2.379
 2731W        W 3828   0.667   2.501   3.653
 2732W        W 3829   3.401   4.499   4.322
 2733W        W 3830   5.367   5.057   7.276
 2734W        W 3831   3.690   2.793   3.200
 2735W        W 3832   5.672   0.675   1.790
 2736W        W 3833   2.527   2.255   4.494
 2737W        W 3834   4.168   5.410   3.651
 2738W        W 3835   6.921   4.181   5.508
 2739W        W 3836   6.580   6.537   1.232
 2740W        W 3837   3.852   4.295   4.383
 2741W        W 3838   3.859   6.763   0.924
 2742W        W 3839   6.421   5.959   3.331
 2743W        W 3840   4.227   2.921   7.934
 2744W        W 3841   5.833   2.924   5.171
 2745W        W 3842   2.490   6.053   5.844
 2746W        W 3843   7.005   2.616   2.856
 2747W        W 3844   6.987   1.051   6.449
 2748W        W 3845   3.041   2.310   4.434
 2749W        W 3846   0.283   6.884   5.747
 2750W        W 3847   4.363   1.218   7.645
 2751W        W 3848   7.636   4.351   6.038
 2752W        W 3849   0.066   2.253   1.210
 2753W        W 3850   0.699   3.675   1.192
 2754W        W 3851   7.139   3.319   5.364
 2755W        W 3852   3.983   4.079   4.834
 2756W        W 3853   6.014   0.860   7.679
 2757W        W 3854   3.906   1.237   4.827
 2758W        W 3855   7.104   1.755   2.446
 2759W        W 3856   7.241   6.539   4.168
 2760W        W 3857   2.187   3.128   5.316
 2761W        W 3858   5.633   3.352   5.439
 2762W        W 3859   3.590   2.874   4.420
 2763W        W 3860   0.940   1.700   6.977
 2764W        W 3861   4.157   2.084   6.814
 2765W        W 3862   1.498   6.455   0.962
 2766W        W 3863   5.541   0.521   3.170
 2767W        W 3864   2.949   3.138   4.265
 2768W        W 3865   2.342   0.879   3.067
 2769W        W 3866   6.234   1.963   6.501
 2770W        W 3867   5.310   2.677   0.236
 2771W        W 3868   0.467   2.414   7.573
 2772W        W 3869   0.031   3.049   1.651
 2773W        W 3870   6.583   3.096   2.078
 2774W        W 3871   4.756   6.774   0.670
 2775W        W 3872   4.183   1.772   3.984
 2776W        W 3873   0.893   0.795   3.302
 2777W        W 3874   1.288   1.146   3.369
 2778W        W 3875   3.146   1.323   4.177
 2779W        W 3876   6.280   7.634   4.501
 2780W        W 3877   6.367   6.599   7.224
 2781W        W 3878   5.426   0.254   5.924
 2782W        W 3879   1.432   5.789   7.136
 2783W        W 3880   4.880   3.672   7.090
 2784W        W 3881   4.634   5.386   2.116
 2785W        W 3882   3.640   6.458   5.361
 2786W        W 3883   1.876   2.391   6.538
 2787W        W 3884   5.653   6.120   1.764
 2788W        W 3885   1.009   4.654   7.555
 2789W        W 3886   0.935   5.746   2.590
 2790W        W 3887   6.059   7.770   6.957
 2791W        W 3888   4.449   2.483   4.445
 2792W        W 3889   3.076   1.077   2.750
 2793W        W 3890   6.778   4.054   2.727
 2794W        W 3891   6.533   1.477   5.354
 2795W        W 3892   0.126   4.500   2.086
 2796W        W 3893   4.439   4.893   3.945
 2797W        W 3894   7.107   7.718   3.780
 2798W        W 3895   5.276   5.805   5.867
 2799W        W 3896   3.424   1.158   4.976
 2800W        W 3897   1.415   4.540   7.265
 2801W        W 3898   7.099   6.732   1.442
 2802W        W 3899   0.658   4.109   3.475
 2803W        W 3900   7.723   6.057   1.888
 2804W        W 3901   1.213   0.432   6.223
 2805W        W 3902   3.198   5.616   5.669
 2806W        W 3903   1.649   2.548   4.660
 2807W        W 3904   3.749   4.748   7.601
 2808W        W 3905   3.667   5.368   6.704
 2809W        W 3906   3.604   0.376   7.449
 2810W        W 3907   5.159   3.574   1.722
 2811W        W 3908   6.402   4.922   4.393
 2812W        W 3909   6.665   1.467   0.189
 2813W        W 3910   3.143   1.309   6.875
 2814W        W 3911   7.098   6.271   4.582
 2815W        W 3912   6.145   5.949   1.614
 2816W        W 3913   6.038   0.702   0.170
 2817W        W 3914   7.144   6.615   2.952
 2818W        W 3915   6.480   5.914   6.515
 2819W        W 3916   0.866   6.943   2.931
 2820W        W 3917   7.406   5.305   5.177
 2821W        W 3918   6.243   5.265   5.265
 2822W        W 3919   0.053   4.528   2.606
 2823W        W 3920   0.376   2.112   5.578
 2824W        W 3921   3.856   1.093   6.382
 2825W        W 3922   1.680   3.366   1.003
 2826W        W 3923   7.984   0.644   6.427
 2827W        W 3924   5.714   1.716   5.884
 2828W        W 3925   0.019   1.553   7.431
 2829W        W 3926   1.718   3.758   4.207
 2830W        W 3927   3.353   7.036   6.755
 2831W        W 3928   1.999   6.091   4.648
 2832W        W 3929   4.295   5.927   1.378
 2833W        W 3930   5.097   1.746   2.208
 2834W        W 3931   6.656   6.764   0.380
 2835W        W 3932   1.889   0.641   3.154
 2836W        W 3933   2.463   6.867   0.904
 2837W        W 3934   5.805   0.466   0.887
 2838W        W 3935   6.112   2.638   3.858
 2839W        W 3936   4.792   1.905   5.717
 2840W        W 3937   5.736   5.578   6.046
 2841W        W 3938   6.441   5.514   0.126
 2842W        W 3939   4.988   3.317   6.456
 2843W        W 3940   1.284   6.951   2.629
 2844W        W 3941   7.680   4.854   5.843
 2845W        W 3942   5.618   3.346   1.790
 2846W        W 3943   6.560   5.813   6.021
 2847W        W 3944   3.573   2.614   5.810
 2848W        W 3945   4.997   2.222   2.057
 2849W        W 3946   6.757   1.518   3.275
 2850W        W 3947   4.448   2.668   4.900
 2851W        W 3948   2.988   3.371   3.221
 2852W        W 3949   1.055   0.294   3.212
 2853W        W 3950   0.253   1.580   0.450
 2854W        W 3951   7.121   4.856   4.982
 2855W        W 3952   4.508   1.581   6.014
 2856W        W 3953   7.755   7.366   6.045
 2857W        W 3954   6.513   6.325   6.187
 2858W        W 3955   6.515   0.627   3.174
 2859W        W 3956   3.815   2.255   6.278
 2860W        W 3957   0.930   1.673   5.028
 2861W        W 3958   3.399   1.124   0.097
 2862W        W 3959   3.735   6.916   5.731
 2863W        W 3960   1.221   6.669   4.076
 2864W        W 3961   4.299   5.997   6.272
 2865W        W 3962   3.234   0.908   1.917
 2866W        W 3963   7.864   6.951   3.625
 2867W        W 3964   1.837   6.913   1.664
 2868W        W 3965   5.895   6.919   4.846
 2869W        W 3966   4.758   1.625   1.422
 2870W        W 3967   5.510   5.886   6.768
 2871W        W 3968   3.719   4.637   1.456
 2872W        W 3969   5.231   7.657   6.641
 2873W        W 3970   6.434   6.858   6.291
 2874W        W 3971   5.912   3.711   0.558
 2875W        W 3972   2.812   2.352   2.894
 2876W        W 3973   4.546   3.087   1.011
 2877W        W 3974   3.352   7.095   7.413
 2878W        W 3975   1.831   3.034   6.875
 2879W        W 3976   6.157   2.660   5.885
 2880W        W 3977   5.055   7.231   0.689
 2881W        W 3978   1.380   6.645   4.855
 2882W        W 3979   2.793   3.043   1.442
 2883W        W 3980   5.429   6.000   2.294
 2884W        W 3981   3.817   3.834   1.840
 2885W        W 3982   5.149   0.997   0.420
 2886W        W 3983   4.860   3.566   4.940
 2887W        W 3984   4.085   7.254   5.655
 2888W        W 3985   2.627   5.036   2.394
 2889W        W 3986   4.818   2.378   5.488
 2890W        W 3987   5.374   7.059   0.295
 2891W        W 3988   2.694   3.227   0.388
 2892W        W 3989   1.744   2.969   7.369
 2893W        W 3990   1.930   2.699   5.423
 2894W        W 3991   6.800   7.727   4.616
 2895W        W 3992   1.004   4.556   5.527
 2896W        W 3993   0.120   5.420   4.766
 2897W        W 3994   0.989   4.443   3.957
 2898W        W 3995   7.268   1.921   6.846
 2899W        W 3996   3.892   1.861   1.222
 2900W        W 3997   3.319   1.481   0.438
 2901W        W 3998   4.940   4.580   6.532
 2902W        W 3999   5.776   3.573   6.815
 2903W        W 4000   6.002   2.362   6.261
 2904W        W 4001   1.254   2.874   7.568
 2905W        W 4002   2.232   0.637   0.422
 2906W        W 4003   5.646   5.414   7.481
 2907W        W 4004   0.971   2.478   7.424
 2908W        W 4005   6.009   7.094   6.115
 2909W        W 4006   5.116   7.694   5.449
 2910W        W 4007   1.880   6.226   5.968
 2911W        W 4008   3.337   4.417   5.149
 2912W        W 4009   5.773   7.314   1.917
 2913W        W 4010   4.710   3.059   7.820
 2914W        W 4011   6.009   3.292   2.834
 2915W        W 4012   4.044   2.965   4.227
 2916W        W 4013   3.943   7.611   7.274
 2917W        W 4014   3.114   4.055   6.485
 2918W        W 4015   4.686   4.297   4.765
 2919W        W 4016   4.441   3.840   4.842
 2920W        W 4017   2.257   1.369   6.318
 2921W        W 4018   6.330   4.476   5.622
 2922W        W 4019   0.522   1.564   3.567
 2923W        W 4020   2.488   4.427   7.146
 2924W        W 4021   6.171   2.254   7.814
 2925W        W 4022   5.136   6.974   6.144
 2926W        W 4023   2.138   3.429   7.155
 2927W        W 4024   3.645   6.111   2.153
 2928W        W 4025   4.907   6.372   6.901
 2929W        W 4026   1.029   6.564   0.739
 2930W        W 4027   2.606   3.243   5.596
 2931W        W 4028   7.131   7.974   4.274
 2932W        W 4029   6.263   1.892   0.607
 2933W        W 4030   1.790   6.439   3.347
 2934W        W 4031   3.002   5.279   0.709
 2935W        W 4032   1.833   3.391   6.514
 2936W        W 4033   6.740   0.851   1.922
 2937W        W 4034   3.800   2.109   3.845
 2938W        W 4035   1.908   4.215   3.013
 2939W        W 4036   2.943   0.798   2.342
 2940W        W 4037   7.524   4.428   6.535
 2941W        W 4038   4.333   7.535   5.973
 2942W        W 4039   6.186   5.297   4.741
 2943W        W 4040   6.167   1.335   1.268
 2944W        W 4041   0.749   2.470   0.205
 2945W        W 4042   3.559   3.038   1.284
 2946W        W 4043   1.924   6.667   5.689
 2947W        W 4044   2.006   4.445   4.327
 2948W        W 4045   1.972   3.139   0.242
 2949W        W 4046   4.637   4.513   5.236
 2950W        W 4047   0.690   6.335   2.157
 2951W        W 4048   2.291   2.617   5.033
 2952W        W 4049   0.204   2.878   2.430
 2953W        W 4050   2.306   2.951   3.320
 2954W        W 4051   4.837   3.171   6.925
 2955W        W 4052   4.211   5.819   2.808
 2956W        W 4053   2.500   1.187   3.480
 2957W        W 4054   1.609   4.965   7.665
 2958W        W 4055   0.038   3.582   6.553
 2959W        W 4056   4.173   6.796   2.519
 2960W        W 4057   6.273   2.500   1.713
 2961W        W 4058   0.288   2.344   3.997
 2962W        W 4059   4.659   5.184   5.733
 2963W        W 4060   6.746   3.703   4.409
 2964W        W 4061   2.369   6.423   2.075
 2965W        W 4062   1.709   6.222   5.483
 2966W        W 4063   4.462   2.813   6.957
 2967W        W 4064   6.873   1.925   1.355
 2968W        W 4065   5.641   5.088   0.908
 2969W        W 4066   5.153   1.762   4.254
 2970W        W 4067   2.321   2.994   1.643
 2971W        W 4068   4.188   0.807   6.084
 2972W        W 4069   7.271   3.299   2.433
 2973W        W 4070   1.842   6.225   6.482
 2974W        W 4071   3.637   2.240   2.083
 2975W        W 4072   2.675   1.088   1.438
 2976W        W 4073   1.941   4.835   6.532
 2977W        W 4074   2.167   1.756   5.128
 2978W        W 4075   4.904   1.602   2.755
 2979W        W 4076   7.296   6.366   5.968
 2980W        W 4077   6.959   6.072   6.197
 2981W        W 4078   5.249   1.441   7.345
 2982W        W 4079   5.919   3.724   4.720
 2983W        W 4080   0.635   6.698   1.060
 2984W        W 4081   4.960   7.266   2.087
 2985W        W 4082   3.284   6.097   5.173
 2986W        W 4083   5.241   5.184   0.588
 2987W        W 4084   7.671   1.121   1.134
 2988W        W 4085   0.864   2.124   7.793
 2989W        W 4086   6.531   3.367   2.933
 2990W        W 4087   7.167   3.791   2.472
 2991W        W 4088   3.467   7.332   5.535
 2992W        W 4089   1.175   1.815   5.469
 2993W        W 4090   2.774   6.793   6.030
 2994W        W 4091   5.958   4.442   7.466
 2995W        W 4092   2.329   2.699   6.137
 2996W        W 4093   1.770   3.735   4.726
 2997W        W 4094   1.532   6.379   4.433
 2998W        W 4095   7.790   1.595   6.161
 2999W        W 4096   5.546   1.122   7.039
 3000W        W 4097   4.764   6.110   3.950
 3001W        W 4098   0.487   3.324   5.595
 3002W        W 4099   5.236   4.852   4.716
 3003W        W 4100   1.017   1.775   6.477
 3004W        W 4101   6.835   0.278   2.973
 3005W        W 4102   2.288   4.307   1.176
 3006W        W 4103   0.728   2.093   1.910
 3007W        W 4104   6.150   0.722   1.279
 3008W        W 4105   2.102   0.495   2.704
 3009W        W 4106   6.641   1.801   6.245
 3010W        W 4107   2.208   6.566   1.625
 3011W        W 4108   1.240   6.501   2.372
 3012W        W 4109   3.788   7.267   1.009
 3013W        W 4110   6.032   4.808   4.752
 3014W        W 4111   3.107   5.350   1.198
 3015W        W 4112   5.288   0.892   4.883
 3016W        W 4113   3.442   3.080   2.548
 3017W        W 4114   7.721   3.629   6.094
 3018W        W 4115   0.825   6.772   1.529
 3019W        W 4116   5.595   2.557   6.521
 3020W        W 4117   1.951   4.476   0.099
 3021W        W 4118   0.175   3.263   2.771
 3022W        W 4119   6.603   5.057   4.915
 3023W        W 4120   6.888   1.978   3.431
 3024W        W 4121   5.091   3.858   6.677
 3025W        W 4122   2.295   2.637   6.658
 3026W        W 4123   1.696   7.668   2.904
 3027W        W 4124   7.224   6.378   3.596
 3028W        W 4125   4.430   2.319   2.704
 3029W        W 4126   7.231   1.399   1.194
 3030W        W 4127   1.670   5.673   4.851
 3031W        W 4128   3.952   3.400   2.100
 3032W        W 4129   1.966   3.528   0.602
 3033W        W 4130   6.604   1.376   6.519
 3034W        W 4131   3.282   2.206   6.052
 3035W        W 4132   1.981   1.060   4.369
 3036W        W 4133   4.585   4.321   7.962
 3037W        W 4134   6.935   1.912   0.028
 3038W        W 4135   6.263   4.076   0.366
 3039W        W 4136   3.683   3.911   5.230
 3040W        W 4137   4.597   2.719   2.965
 3041W        W 4138   6.950   4.392   0.912
 3042W        W 4139   5.064   2.958   2.901
 3043W        W 4140   2.727   3.010   7.345
 3044W        W 4141   4.763   4.877   2.152
 3045W        W 4142   5.262   4.611   3.320
 3046W        W 4143   5.599   7.311   2.435
 3047W        W 4144   5.456   5.471   2.414
 3048W        W 4145   4.609   5.188   3.447
 3049W        W 4146   7.083   1.612   6.487
 3050W        W 4147   3.429   3.165   4.037
 3051W        W 4148   5.474   1.449   3.994
 3052W        W 4149   7.772   2.007   1.573
 3053W        W 4150   3.405   4.988   0.889
 3054W        W 4151   1.015   0.625   1.192
 3055W        W 4152   1.692   5.366   7.946
 3056W        W 4153   5.004   3.054   0.565
 3057W        W 4154   4.698   0.208   6.176
 3058W        W 4155   5.951   2.029   1.733
 3059W        W 4156   5.571   1.139   2.015
 3060ION    CL- 4157   0.372   1.725   1.902
 3061ION    CL- 4158   5.953   6.450   3.411
 3062ION    CL- 4159   3.971   7.202   2.738
 3063ION    CL- 4160   1.206   5.248   4.049
 3064ION    CL- 4161   5.179   1.910   7.602
 3065ION    CL- 4162   7.230   3.963   1.871
 3066ION    CL- 4163   2.689   4.181   6.728
 3067ION    CL- 4164   1.943   0.962   6.407
 3068ION    CL- 4165   2.427   4.638   0.010
 3069ION    CL- 4166   1.340   5.386   5.135
 3070ION    CL- 4167   4.045   2.018   3.228
 3071ION    CL- 4168   4.088   2.520   7.628
 3072ION    CL- 4169   3.555   6.962   6.222
 3073ION    CL- 4170   4.993   0.333   2.045
 3074ION    CL- 4171   5.310   7.555   0.180
 3075ION    CL- 4172   0.301   6.744   1.470
 3076ION    CL- 4173   1.378   0.711   3.142
 3077ION    CL- 4174   4.263   4.642   1.429
 3078ION    CL- 4175   6.199   4.301   2.650
 3079ION    CL- 4176   2.949   6.070   4.256
 3080ION    CL- 4177   5.802   6.939   0.627
 3081ION    CL- 4178   6.155   7.914   7.467
 3082ION    CL- 4179   4.983   6.882   4.838
 3083ION    CL- 4180   2.823   4.789   3.879
 3084ION    CL- 4181   4.633   7.380   1.418
 3085ION    CL- 4182   4.865   6.526   1.640
 3086ION    CL- 4183   6.471   0.951   4.416
 3087ION    CL- 4184   7.891   1.075   6.133
 3088ION    CL- 4185   4.581   5.858   2.447
 3089ION    CL- 4186   3.251   6.697   1.557
 3090ION    CL- 4187   2.764   4.740   5.843
 3091ION    CL- 4188   1.085   3.484   0.254
 3092ION    CL- 4189   5.428   0.830   6.429
 3093ION    CL- 4190   2.243   3.649   4.852
 3094ION    CL- 4191   5.609   6.448   6.545
 3095ION    CL- 4192   1.914   1.887   6.563
 3096ION    CL- 4193   5.282   3.418   6.869
 3097ION    CL- 4194   5.936   7.309   3.251
 3098ION    CL- 4195   5.134   4.168   3.632
 3099ION    CL- 4196   0.872   4.416   0.731
 3100ION    CL- 4197   7.621   6.216   3.849
 3101ION    CL- 4198   2.657   3.536   7.347
 3102ION    CL- 4199   5.082   0.792   1.255
 3103ION    CL- 4200   5.535   6.080   4.556
 3104ION    CL- 4201   7.094   4.726   2.249
 3105ION    CL- 4202   4.664   0.122   1.663
 3106ION    CL- 4203   6.128   1.856   7.472
 3107ION    CL- 4204   5.676   1.920   5.362
 3108ION    CL- 4205   3.138   2.274   0.985
 3109ION    CL- 4206   3.547   3.056   6.730
 3110ION    CL- 4207   1.285   3.982   2.933
 3111ION    CL- 4208   6.539   0.193   0.608
 3112ION    CL- 4209   6.019   2.217   0.317
 3113ION    CL- 4210   4.688   1.713   4.057
 3114ION    CL- 4211   3.357   3.528   1.226
 3115ION    CL- 4212   5.855   0.245   5.142
 3116ION    CL- 4213   6.804   1.444   3.794
 3117ION    CL- 4214   6.955   2.291   4.791
 3118ION    CL- 4215   1.265   1.327   6.191
 3119ION    CL- 4216   6.729   3.825   3.211
 3120ION    CL- 4217   5.195   2.872   7.701
 3121ION    CL- 4218   7.792   2.898   3.436
 3122ION    CL- 4219   1.899   2.374   4.273
 3123ION    CL- 4220   4.879   0.081   0.786
 3124ION    CL- 4221   7.048   2.508   1.288
 3125ION    CL- 4222   4.701   1.124   2.626
 3126ION    CL- 4223   6.124   1.785   2.178
 3127ION    CL- 4224   3.129   2.077   7.022
 3128ION    CL- 4225   6.057   2.351   6.797
 3129ION    CL- 4226   7.768   3.157   2.460
 3130ION    CL- 4227   5.257   7.470   1.716
 3131ION    CL- 4228   3.223   4.179   7.507
 3132ION    CL- 4229   4.576   2.540   7.832
 3133ION    CL- 4230   5.995   1.423   5.586
 3134ION    CL- 4231   5.757   1.249   2.479
 3135ION    CL- 4232   1.262   6.801   7.505
 3136ION    CL- 4233   3.799   7.636   6.783
 3137ION    CL- 4234   5.455   6.662   7.435
 3138ION    CL- 4235   0.977   1.526   2.684
 3139ION    CL- 4236   4.470   1.652   7.975
 3140ION    CL- 4237   1.730   2.564   2.204
 3141ION    CL- 4238   5.992   4.673   6.348
 3142ION    CL- 4239   1.411   0.584   0.006
 3143ION    CL- 4240   3.549   3.571   5.856
 3144ION    CL- 4241   4.086   3.767   2.452
 3145ION    CL- 4242   4.706   0.868   4.967
 3146ION    CL- 4243   5.514   1.686   0.890
 3147ION    CL- 4244   0.939   3.815   7.893
 3148ION    CL- 4245   0.705   3.344   2.836
 3149ION    CL- 4246   5.061   7.258   5.732
 3150ION    CL- 4247   0.569   3.591   5.150
 3151ION    CL- 4248   2.693   3.195   1.918
 3152ION    CL- 4249   6.966   2.396   3.703
 3153ION    CL- 4250   3.976   3.585   4.927
 3154ION    CL- 4251   4.670   6.820   6.326
 3155ION    CL- 4252   0.196   6.315   4.941
 3156ION    CL- 4253   2.909   5.952   7.696
 3157ION    CL- 4254   2.840   0.850   3.193
 3158ION    CL- 4255   5.351   3.471   4.043
 3159ION    CL- 4256   3.465   5.511   0.883
   8.00000   8.00000   8.00000
