Martini system from ../2_Creating_coordinates/TYR-PHE-TYR_aa.pdb
 4351
    1TYR     BB    1   7.075   0.127   3.446
    1TYR    SC1    2   7.205   7.843   3.435
    1TYR    SC2    3   7.287   7.667   3.248
    1TYR    SC3    4   7.413   7.680   3.486
    2PHE     BB    5   7.089   0.246   3.135
    2PHE    SC1    6   6.954   0.525   3.160
    2PHE    SC2    7   6.902   0.745   3.308
    2PHE    SC3    8   6.788   0.716   3.065
    3TYR     BB    9   7.193   0.021   2.907
    3TYR    SC1   10   7.467   7.990   2.754
    3TYR    SC2   11   7.602   0.105   2.550
    3TYR    SC3   12   7.659   7.852   2.624
    1TYR     BB   13   0.508   6.330   7.038
    1TYR    SC1   14   0.713   6.515   7.191
    1TYR    SC2   15   0.874   6.487   7.406
    1TYR    SC3   16   0.958   6.627   7.192
    2PHE     BB   17   0.750   6.067   6.987
    2PHE    SC1   18   0.586   5.830   6.902
    2PHE    SC2   19   0.534   5.570   6.853
    2PHE    SC3   20   0.330   5.745   6.879
    3TYR     BB   21   1.029   6.141   7.023
    3TYR    SC1   22   1.258   6.003   6.888
    3TYR    SC2   23   1.523   5.986   6.842
    3TYR    SC3   24   1.360   5.784   6.768
    1TYR     BB   25   0.912   1.228   7.085
    1TYR    SC1   26   0.841   1.310   6.793
    1TYR    SC2   27   0.901   1.398   6.544
    1TYR    SC3   28   0.699   1.222   6.580
    2PHE     BB   29   1.246   1.156   7.070
    2PHE    SC1   30   1.354   1.398   7.225
    2PHE    SC2   31   1.300   1.662   7.238
    2PHE    SC3   32   1.490   1.556   7.398
    3TYR     BB   33   1.342   1.239   6.758
    3TYR    SC1   34   1.282   1.540   6.781
    3TYR    SC2   35   1.086   1.723   6.812
    3TYR    SC3   36   1.342   1.803   6.782
    1TYR     BB   37   6.174   0.704   0.431
    1TYR    SC1   38   6.452   0.840   0.413
    1TYR    SC2   39   6.690   0.898   0.300
    1TYR    SC3   40   6.672   0.868   0.567
    2PHE     BB   41   6.029   0.981   0.607
    2PHE    SC1   42   6.033   1.174   0.367
    2PHE    SC2   43   5.918   1.320   0.171
    2PHE    SC3   44   6.159   1.206   0.130
    3TYR     BB   45   6.229   1.177   0.848
    3TYR    SC1   46   6.437   1.274   0.662
    3TYR    SC2   47   6.512   1.303   0.404
    3TYR    SC3   48   6.697   1.318   0.601
    1TYR     BB   49   2.609   6.289   4.843
    1TYR    SC1   50   2.709   6.173   4.566
    1TYR    SC2   51   2.844   6.017   4.391
    1TYR    SC3   52   2.611   6.134   4.318
    2PHE     BB   53   2.269   6.172   4.818
    2PHE    SC1   54   2.146   6.165   5.091
    2PHE    SC2   55   1.950   6.179   5.277
    2PHE    SC3   56   2.207   6.231   5.346
    3TYR     BB   57   2.255   5.968   4.631
    3TYR    SC1   58   2.010   5.801   4.577
    3TYR    SC2   59   1.950   5.539   4.549
    3TYR    SC3   60   1.806   5.725   4.417
    1TYR     BB   61   5.945   3.451   5.848
    1TYR    SC1   62   6.108   3.687   5.704
    1TYR    SC2   63   6.280   3.780   5.518
    1TYR    SC3   64   6.126   3.953   5.657
    2PHE     BB   65   5.762   3.350   5.628
    2PHE    SC1   66   5.671   3.067   5.565
    2PHE    SC2   67   5.523   2.963   5.365
    2PHE    SC3   68   5.712   2.812   5.486
    3TYR     BB   69   5.949   3.388   5.321
    3TYR    SC1   70   5.899   3.682   5.266
    3TYR    SC2   71   5.941   3.947   5.240
    3TYR    SC3   72   5.776   3.818   5.069
    1TYR     BB   73   4.426   4.132   7.776
    1TYR    SC1   74   4.591   4.131   7.507
    1TYR    SC2   75   4.793   4.006   7.379
    1TYR    SC3   76   4.567   4.068   7.245
    2PHE     BB   77   4.541   3.783   7.842
    2PHE    SC1   78   4.458   3.587   0.064
    2PHE    SC2   79   4.480   3.328   0.136
    2PHE    SC3   80   4.437   3.518   0.323
    3TYR     BB   81   4.837   3.859   7.901
    3TYR    SC1   82   5.029   3.773   7.684
    3TYR    SC2   83   5.272   3.824   7.579
    3TYR    SC3   84   5.106   3.652   7.455
    1TYR     BB   85   4.749   7.177   5.558
    1TYR    SC1   86   4.858   7.086   5.272
    1TYR    SC2   87   4.722   7.025   5.047
    1TYR    SC3   88   4.976   7.114   5.030
    2PHE     BB   89   4.473   7.330   5.433
    2PHE    SC1   90   4.326   7.527   5.616
    2PHE    SC2   91   4.247   7.706   5.802
    2PHE    SC3   92   4.152   7.723   5.550
    3TYR     BB   93   4.608   7.553   5.208
    3TYR    SC1   94   4.608   7.817   5.393
    3TYR    SC2   95   4.625   0.086   5.398
    3TYR    SC3   96   4.591   7.949   5.628
    1TYR     BB   97   3.453   5.288   6.992
    1TYR    SC1   98   3.363   5.272   7.288
    1TYR    SC2   99   3.415   5.296   7.551
    1TYR    SC3  100   3.160   5.289   7.465
    2PHE     BB  101   3.633   5.532   6.961
    2PHE    SC1  102   3.910   5.441   6.864
    2PHE    SC2  103   4.160   5.490   6.953
    2PHE    SC3  104   4.117   5.442   6.691
    3TYR     BB  105   3.731   5.673   7.259
    3TYR    SC1  106   3.479   5.756   7.410
    3TYR    SC2  107   3.277   5.741   7.588
    3TYR    SC3  108   3.321   5.971   7.454
    1TYR     BB  109   7.777   2.070   2.276
    1TYR    SC1  110   7.699   1.773   2.254
    1TYR    SC2  111   7.819   1.541   2.187
    1TYR    SC3  112   7.561   1.541   2.269
    2PHE     BB  113   0.090   2.091   2.377
    2PHE    SC1  114   0.250   2.182   2.135
    2PHE    SC2  115   0.296   2.367   1.944
    2PHE    SC3  116   0.379   2.113   1.908
    3TYR     BB  117   0.173   1.803   2.500
    3TYR    SC1  118   0.392   1.848   2.718
    3TYR    SC2  119   0.653   1.834   2.786
    3TYR    SC3  120   0.474   1.941   2.958
    1TYR     BB  121   2.081   4.329   1.379
    1TYR    SC1  122   1.907   4.553   1.500
    1TYR    SC2  123   1.675   4.601   1.629
    1TYR    SC3  124   1.897   4.740   1.694
    2PHE     BB  125   2.200   4.232   1.689
    2PHE    SC1  126   2.499   4.210   1.708
    2PHE    SC2  127   2.700   4.248   1.884
    2PHE    SC3  128   2.755   4.171   1.632
    3TYR     BB  129   1.953   4.197   1.877
    3TYR    SC1  130   1.860   4.441   2.028
    3TYR    SC2  131   1.952   4.639   2.187
    3TYR    SC3  132   1.699   4.648   2.093
    1TYR     BB  133   6.020   6.530   5.046
    1TYR    SC1  134   5.861   6.387   5.254
    1TYR    SC2  135   5.675   6.368   5.449
    1TYR    SC3  136   5.888   6.202   5.449
    2PHE     BB  137   6.087   6.430   4.758
    2PHE    SC1  138   6.195   6.675   4.609
    2PHE    SC2  139   6.210   6.806   4.373
    2PHE    SC3  140   6.409   6.829   4.554
    3TYR     BB  141   5.873   6.297   4.531
    3TYR    SC1  142   5.613   6.318   4.702
    3TYR    SC2  143   5.510   6.358   4.948
    3TYR    SC3  144   5.350   6.368   4.731
    1TYR     BB  145   4.852   3.001   0.303
    1TYR    SC1  146   5.004   2.725   0.281
    1TYR    SC2  147   5.077   2.511   0.429
    1TYR    SC3  148   4.945   2.475   0.196
    2PHE     BB  149   4.536   2.843   0.320
    2PHE    SC1  150   4.342   3.033   0.454
    2PHE    SC2  151   4.172   3.227   0.535
    2PHE    SC3  152   4.291   3.067   0.717
    3TYR     BB  153   4.617   2.661   0.620
    3TYR    SC1  154   4.590   2.381   0.490
    3TYR    SC2  155   4.689   2.135   0.438
    3TYR    SC3  156   4.423   2.179   0.426
    1TYR     BB  157   1.072   2.657   6.020
    1TYR    SC1  158   1.313   2.478   6.025
    1TYR    SC2  159   1.582   2.492   5.998
    1TYR    SC3  160   1.455   2.256   5.966
    2PHE     BB  161   0.936   2.649   6.330
    2PHE    SC1  162   0.746   2.876   6.293
    2PHE    SC2  163   0.533   2.934   6.137
    2PHE    SC3  164   0.733   3.114   6.165
    3TYR     BB  165   0.972   2.456   6.516
    3TYR    SC1  166   1.137   2.210   6.427
    3TYR    SC2  167   1.107   1.943   6.412
    3TYR    SC3  168   1.348   2.054   6.363
    1TYR     BB  169   2.528   3.626   6.558
    1TYR    SC1  170   2.469   3.846   6.352
    1TYR    SC2  171   2.331   3.865   6.120
    1TYR    SC3  172   2.431   4.087   6.236
    2PHE     BB  173   2.376   3.668   6.835
    2PHE    SC1  174   2.150   3.471   6.910
    2PHE    SC2  175   1.982   3.406   7.111
    2PHE    SC3  176   1.897   3.397   6.855
    3TYR     BB  177   2.166   3.949   6.794
    3TYR    SC1  178   2.382   4.157   6.730
    3TYR    SC2  179   2.531   4.379   6.765
    3TYR    SC3  180   2.640   4.160   6.650
    1TYR     BB  181   0.401   7.689   1.907
    1TYR    SC1  182   0.281   7.957   1.822
    1TYR    SC2  183   0.097   0.098   1.683
    1TYR    SC3  184   0.236   0.217   1.881
    2PHE     BB  185   0.535   7.512   1.667
    2PHE    SC1  186   0.346   7.276   1.629
    2PHE    SC2  187   0.090   7.197   1.594
    2PHE    SC3  188   0.270   7.027   1.703
    3TYR     BB  189   0.839   7.529   1.554
    3TYR    SC1  190   0.787   7.707   1.300
    3TYR    SC2  191   0.717   7.746   1.042
    3TYR    SC3  192   0.570   7.857   1.240
    1TYR     BB  193   4.045   0.712   7.600
    1TYR    SC1  194   4.133   0.975   7.454
    1TYR    SC2  195   4.099   1.180   7.282
    1TYR    SC3  196   4.247   1.214   7.506
    2PHE     BB  197   3.863   0.839   7.837
    2PHE    SC1  198   3.814   0.635   0.056
    2PHE    SC2  199   3.641   0.463   0.172
    2PHE    SC3  200   3.868   0.534   0.300
    3TYR     BB  201   3.893   1.136   7.897
    3TYR    SC1  202   3.881   1.395   7.726
    3TYR    SC2  203   3.920   1.538   7.500
    3TYR    SC3  204   3.936   1.659   7.740
    1TYR     BB  205   3.196   2.385   5.967
    1TYR    SC1  206   3.289   2.661   6.093
    1TYR    SC2  207   3.510   2.741   6.227
    1TYR    SC3  208   3.286   2.891   6.235
    2PHE     BB  209   3.435   2.370   5.733
    2PHE    SC1  210   3.404   2.113   5.586
    2PHE    SC2  211   3.486   1.969   5.372
    2PHE    SC3  212   3.448   1.848   5.611
    3TYR     BB  213   3.700   2.500   5.760
    3TYR    SC1  214   3.699   2.805   5.771
    3TYR    SC2  215   3.752   3.048   5.666
    3TYR    SC3  216   3.600   3.027   5.888
    1TYR     BB  217   6.762   2.630   2.902
    1TYR    SC1  218   7.036   2.505   2.856
    1TYR    SC2  219   7.113   2.262   2.769
    1TYR    SC3  220   7.296   2.458   2.800
    2PHE     BB  221   6.687   2.628   2.539
    2PHE    SC1  222   6.390   2.658   2.583
    2PHE    SC2  223   6.141   2.560   2.549
    2PHE    SC3  224   6.228   2.626   2.796
    3TYR     BB  225   6.899   2.482   2.353
    3TYR    SC1  226   6.879   2.317   2.074
    3TYR    SC2  227   6.933   2.267   1.814
    3TYR    SC3  228   6.765   2.105   1.951
    1TYR     BB  229   6.221   5.688   0.331
    1TYR    SC1  230   6.468   5.545   0.431
    1TYR    SC2  231   6.672   5.392   0.342
    1TYR    SC3  232   6.709   5.558   0.553
    2PHE     BB  233   6.161   5.556   0.015
    2PHE    SC1  234   5.914   5.388   0.051
    2PHE    SC2  235   5.645   5.400   0.045
    2PHE    SC3  236   5.768   5.177   0.134
    3TYR     BB  237   6.270   5.639   7.705
    3TYR    SC1  238   6.121   5.711   7.432
    3TYR    SC2  239   5.908   5.682   7.270
    3TYR    SC3  240   6.134   5.795   7.176
    1TYR     BB  241   1.451   6.499   3.224
    1TYR    SC1  242   1.171   6.637   3.170
    1TYR    SC2  243   0.946   6.671   3.024
    1TYR    SC3  244   0.950   6.742   3.285
    2PHE     BB  245   1.423   6.396   3.550
    2PHE    SC1  246   1.698   6.278   3.615
    2PHE    SC2  247   1.915   6.253   3.774
    2PHE    SC3  248   1.910   6.133   3.531
    3TYR     BB  249   1.141   6.397   3.647
    3TYR    SC1  250   1.079   6.566   3.898
    3TYR    SC2  251   1.177   6.716   4.100
    3TYR    SC3  252   0.927   6.616   4.115
    1TYR     BB  253   1.246   1.114   3.698
    1TYR    SC1  254   1.225   0.855   3.885
    1TYR    SC2  255   1.321   0.617   3.969
    1TYR    SC3  256   1.175   0.771   4.137
    2PHE     BB  257   1.318   1.343   3.915
    2PHE    SC1  258   1.100   1.559   3.927
    2PHE    SC2  259   0.888   1.660   4.060
    2PHE    SC3  260   0.925   1.722   3.800
    3TYR     BB  261   1.354   1.243   4.212
    3TYR    SC1  262   1.164   1.425   4.385
    3TYR    SC2  263   1.050   1.643   4.496
    3TYR    SC3  264   0.913   1.411   4.483
    1TYR     BB  265   7.143   6.432   1.863
    1TYR    SC1  266   7.076   6.543   2.148
    1TYR    SC2  267   7.141   6.628   2.396
    1TYR    SC3  268   6.945   6.752   2.258
    2PHE     BB  269   7.478   6.507   1.869
    2PHE    SC1  270   7.588   6.349   1.639
    2PHE    SC2  271   7.459   6.200   1.454
    2PHE    SC3  272   7.718   6.150   1.511
    3TYR     BB  273   7.584   6.578   2.151
    3TYR    SC1  274   7.493   6.854   2.243
    3TYR    SC2  275   7.448   6.988   2.473
    3TYR    SC3  276   7.504   7.124   2.246
    1TYR     BB  277   1.203   1.375   1.674
    1TYR    SC1  278   1.233   1.097   1.792
    1TYR    SC2  279   1.341   0.954   1.994
    1TYR    SC3  280   1.251   0.828   1.773
    2PHE     BB  281   1.009   1.540   1.854
    2PHE    SC1  282   0.944   1.801   1.720
    2PHE    SC2  283   0.781   2.014   1.752
    2PHE    SC3  284   0.963   2.012   1.553
    3TYR     BB  285   0.854   1.431   2.087
    3TYR    SC1  286   0.959   1.153   2.182
    3TYR    SC2  287   1.072   0.982   2.358
    3TYR    SC3  288   0.927   0.886   2.151
    1TYR     BB  289   4.215   0.881   1.525
    1TYR    SC1  290   4.158   0.580   1.533
    1TYR    SC2  291   3.961   0.402   1.580
    1TYR    SC3  292   4.152   0.348   1.397
    2PHE     BB  293   3.938   0.976   1.370
    2PHE    SC1  294   3.856   1.221   1.514
    2PHE    SC2  295   3.828   1.478   1.591
    2PHE    SC3  296   3.753   1.278   1.757
    3TYR     BB  297   3.752   0.770   1.304
    3TYR    SC1  298   3.838   0.569   1.090
    3TYR    SC2  299   3.931   0.335   0.992
    3TYR    SC3  300   3.915   0.552   0.832
    1TYR     BB  301   2.948   1.396   4.435
    1TYR    SC1  302   2.963   1.266   4.719
    1TYR    SC2  303   3.067   1.266   4.968
    1TYR    SC3  304   2.808   1.201   4.930
    2PHE     BB  305   2.671   1.602   4.518
    2PHE    SC1  306   2.506   1.613   4.269
    2PHE    SC2  307   2.301   1.507   4.129
    2PHE    SC3  308   2.404   1.746   4.058
    3TYR     BB  309   2.475   1.544   4.764
    3TYR    SC1  310   2.262   1.317   4.819
    3TYR    SC2  311   2.020   1.305   4.939
    3TYR    SC3  312   2.122   1.086   4.818
    1TYR     BB  313   5.134   5.334   7.993
    1TYR    SC1  314   5.025   5.202   7.745
    1TYR    SC2  315   4.813   5.093   7.618
    1TYR    SC3  316   4.995   5.236   7.479
    2PHE     BB  317   5.268   5.087   0.180
    2PHE    SC1  318   5.384   5.259   0.398
    2PHE    SC2  319   5.424   5.373   0.639
    2PHE    SC3  320   5.401   5.528   0.419
    3TYR     BB  321   5.136   4.778   0.055
    3TYR    SC1  322   4.843   4.882   0.085
    3TYR    SC2  323   4.604   4.985   0.014
    3TYR    SC3  324   4.735   5.082   0.230
    1TYR     BB  325   5.791   3.278   7.999
    1TYR    SC1  326   5.516   3.163   0.058
    1TYR    SC2  327   5.255   3.127   7.999
    1TYR    SC3  328   5.330   3.179   0.253
    2PHE     BB  329   5.888   3.466   0.266
    2PHE    SC1  330   6.083   3.689   0.179
    2PHE    SC2  331   6.146   3.900   0.023
    2PHE    SC3  332   6.342   3.748   0.131
    3TYR     BB  333   5.640   3.593   0.434
    3TYR    SC1  334   5.432   3.633   0.214
    3TYR    SC2  335   5.288   3.814   0.075
    3TYR    SC3  336   5.352   3.577   7.962
    1TYR     BB  337   1.443   0.218   6.101
    1TYR    SC1  338   1.466   0.143   5.794
    1TYR    SC2  339   1.617   0.005   5.619
    1TYR    SC3  340   1.356   0.048   5.567
    2PHE     BB  341   1.624   0.003   6.244
    2PHE    SC1  342   1.683   7.916   6.526
    2PHE    SC2  343   1.627   7.786   6.756
    2PHE    SC3  344   1.878   7.872   6.707
    3TYR     BB  345   1.646   7.747   6.037
    3TYR    SC1  346   1.336   7.730   5.955
    3TYR    SC2  347   1.109   7.587   5.983
    3TYR    SC3  348   1.097   7.853   5.935
    1TYR     BB  349   5.485   3.029   2.916
    1TYR    SC1  350   5.788   3.072   2.869
    1TYR    SC2  351   6.053   3.039   2.912
    1TYR    SC3  352   5.941   2.953   2.682
    2PHE     BB  353   5.475   2.733   2.690
    2PHE    SC1  354   5.392   2.470   2.813
    2PHE    SC2  355   5.443   2.212   2.752
    2PHE    SC3  356   5.322   2.274   2.985
    3TYR     BB  357   5.666   2.592   2.431
    3TYR    SC1  358   5.668   2.801   2.207
    3TYR    SC2  359   5.753   2.906   1.973
    3TYR    SC3  360   5.488   2.886   2.024
    1TYR     BB  361   3.026   4.219   3.703
    1TYR    SC1  362   2.893   4.482   3.613
    1TYR    SC2  363   2.838   4.645   3.405
    1TYR    SC3  364   2.641   4.570   3.573
    2PHE     BB  365   3.192   4.144   3.415
    2PHE    SC1  366   3.466   4.070   3.523
    2PHE    SC2  367   3.698   4.195   3.466
    2PHE    SC3  368   3.680   4.036   3.683
    3TYR     BB  369   3.260   4.433   3.242
    3TYR    SC1  370   3.063   4.451   2.997
    3TYR    SC2  371   2.937   4.354   2.779
    3TYR    SC3  372   2.844   4.576   2.901
    1TYR     BB  373   5.950   5.685   5.886
    1TYR    SC1  374   6.174   5.569   6.063
    1TYR    SC2  375   6.266   5.518   6.312
    1TYR    SC3  376   6.438   5.527   6.104
    2PHE     BB  377   5.722   5.773   6.125
    2PHE    SC1  378   5.492   5.874   5.956
    2PHE    SC2  379   5.253   5.892   5.831
    2PHE    SC3  380   5.467   6.024   5.733
    3TYR     BB  381   5.865   5.837   6.384
    3TYR    SC1  382   5.730   5.930   6.648
    3TYR    SC2  383   5.729   5.953   6.917
    3TYR    SC3  384   5.506   6.008   6.776
    1TYR     BB  385   4.524   5.469   3.488
    1TYR    SC1  386   4.593   5.176   3.568
    1TYR    SC2  387   4.484   4.951   3.669
    1TYR    SC3  388   4.663   4.935   3.468
    2PHE     BB  389   4.195   5.435   3.450
    2PHE    SC1  390   4.049   5.591   3.670
    2PHE    SC2  391   3.852   5.771   3.711
    2PHE    SC3  392   3.935   5.613   3.914
    3TYR     BB  393   4.036   5.133   3.458
    3TYR    SC1  394   3.839   5.138   3.214
    3TYR    SC2  395   3.577   5.150   3.152
    3TYR    SC3  396   3.759   5.092   2.961
    1TYR     BB  397   7.478   7.224   3.746
    1TYR    SC1  398   7.260   7.127   3.942
    1TYR    SC2  399   7.013   7.021   3.924
    1TYR    SC3  400   7.099   7.122   4.159
    2PHE     BB  401   7.675   6.949   3.728
    2PHE    SC1  402   7.546   6.757   3.525
    2PHE    SC2  403   7.545   6.652   3.276
    2PHE    SC3  404   7.436   6.515   3.481
    3TYR     BB  405   7.779   6.734   3.958
    3TYR    SC1  406   7.957   6.885   4.152
    3TYR    SC2  407   0.010   6.946   4.410
    3TYR    SC3  408   0.117   7.094   4.211
    1TYR     BB  409   6.154   2.895   7.076
    1TYR    SC1  410   6.123   3.039   7.331
    1TYR    SC2  411   6.031   3.129   7.568
    1TYR    SC3  412   6.253   3.238   7.460
    2PHE     BB  413   5.993   2.614   7.098
    2PHE    SC1  414   5.779   2.648   6.886
    2PHE    SC2  415   5.513   2.634   6.846
    2PHE    SC3  416   5.676   2.712   6.645
    3TYR     BB  417   5.912   2.517   7.369
    3TYR    SC1  418   5.826   2.722   7.595
    3TYR    SC2  419   5.647   2.910   7.668
    3TYR    SC3  420   5.765   2.756   7.856
    1TYR     BB  421   6.450   1.383   2.956
    1TYR    SC1  422   6.153   1.457   2.921
    1TYR    SC2  423   5.923   1.483   3.060
    1TYR    SC3  424   5.993   1.670   2.878
    2PHE     BB  425   6.514   1.605   3.218
    2PHE    SC1  426   6.594   1.463   3.473
    2PHE    SC2  427   6.542   1.329   3.702
    2PHE    SC3  428   6.789   1.319   3.593
    3TYR     BB  429   6.345   1.852   3.177
    3TYR    SC1  430   6.079   1.832   3.352
    3TYR    SC2  431   5.932   1.984   3.520
    3TYR    SC3  432   5.834   1.750   3.430
    1TYR     BB  433   3.288   5.622   3.240
    1TYR    SC1  434   3.128   5.877   3.329
    1TYR    SC2  435   2.967   6.084   3.265
    1TYR    SC3  436   2.925   5.946   3.493
    2PHE     BB  437   3.113   5.357   3.328
    2PHE    SC1  438   3.106   5.156   3.092
    2PHE    SC2  439   3.200   4.920   3.001
    2PHE    SC3  440   2.998   5.044   2.871
    3TYR     BB  441   3.024   5.356   3.639
    3TYR    SC1  442   3.127   5.625   3.754
    3TYR    SC2  443   3.136   5.848   3.906
    3TYR    SC3  444   3.325   5.806   3.718
    1TYR     BB  445   4.666   0.319   0.374
    1TYR    SC1  446   4.716   0.306   0.067
    1TYR    SC2  447   4.770   0.386   7.815
    1TYR    SC3  448   4.680   0.135   7.861
    2PHE     BB  449   4.818   0.007   0.434
    2PHE    SC1  450   5.104   0.082   0.492
    2PHE    SC2  451   5.352   7.986   0.446
    2PHE    SC3  452   5.315   0.251   0.483
    3TYR     BB  453   4.912   7.749   0.201
    3TYR    SC1  454   4.735   7.689   7.968
    3TYR    SC2  455   4.669   7.711   7.707
    3TYR    SC3  456   4.543   7.530   7.864
    1TYR     BB  457   3.478   6.536   6.841
    1TYR    SC1  458   3.499   6.762   6.624
    1TYR    SC2  459   3.495   6.846   6.368
    1TYR    SC3  460   3.565   7.017   6.565
    2PHE     BB  461   3.165   6.489   6.855
    2PHE    SC1  462   3.052   6.244   6.721
    2PHE    SC2  463   2.939   6.009   6.793
    2PHE    SC3  464   2.933   6.088   6.535
    3TYR     BB  465   3.004   6.744   6.768
    3TYR    SC1  466   2.801   6.817   6.981
    3TYR    SC2  467   2.703   6.976   7.176
    3TYR    SC3  468   2.545   6.788   7.062
    1TYR     BB  469   3.389   4.145   1.786
    1TYR    SC1  470   3.531   4.401   1.674
    1TYR    SC2  471   3.691   4.520   1.492
    1TYR    SC3  472   3.537   4.670   1.655
    2PHE     BB  473   3.357   3.966   1.507
    2PHE    SC1  474   3.574   3.750   1.504
    2PHE    SC2  475   3.754   3.677   1.317
    2PHE    SC3  476   3.786   3.598   1.573
    3TYR     BB  477   3.503   4.130   1.221
    3TYR    SC1  478   3.335   4.205   0.981
    3TYR    SC2  479   3.298   4.392   0.789
    3TYR    SC3  480   3.207   4.140   0.752
    1TYR     BB  481   3.914   3.488   5.378
    1TYR    SC1  482   4.073   3.734   5.281
    1TYR    SC2  483   4.328   3.793   5.213
    1TYR    SC3  484   4.150   3.992   5.255
    2PHE     BB  485   4.036   3.261   5.136
    2PHE    SC1  486   3.953   2.996   5.259
    2PHE    SC2  487   3.767   2.801   5.260
    2PHE    SC3  488   4.002   2.764   5.387
    3TYR     BB  489   4.122   3.410   4.866
    3TYR    SC1  490   4.097   3.262   4.595
    3TYR    SC2  491   4.135   3.090   4.390
    3TYR    SC3  492   3.961   3.295   4.363
    1TYR     BB  493   4.971   3.973   4.788
    1TYR    SC1  494   4.884   3.746   4.975
    1TYR    SC2  495   4.976   3.560   5.148
    1TYR    SC3  496   4.780   3.729   5.224
    2PHE     BB  497   5.108   4.152   5.061
    2PHE    SC1  498   5.148   4.421   4.956
    2PHE    SC2  499   5.110   4.643   4.807
    2PHE    SC3  500   5.318   4.630   4.979
    3TYR     BB  501   5.294   3.948   5.205
    3TYR    SC1  502   5.165   3.857   5.460
    3TYR    SC2  503   5.086   3.647   5.612
    3TYR    SC3  504   5.115   3.892   5.723
    1TYR     BB  505   7.608   1.921   1.390
    1TYR    SC1  506   7.309   1.863   1.412
    1TYR    SC2  507   7.098   1.903   1.576
    1TYR    SC3  508   7.067   1.922   1.308
    2PHE     BB  509   7.551   2.282   1.404
    2PHE    SC1  510   7.833   2.361   1.403
    2PHE    SC2  511   0.081   2.394   1.301
    2PHE    SC3  512   0.046   2.378   1.569
    3TYR     BB  513   7.250   2.397   1.392
    3TYR    SC1  514   7.177   2.314   1.087
    3TYR    SC2  515   7.199   2.371   0.824
    3TYR    SC3  516   7.143   2.119   0.903
    1TYR     BB  517   4.226   3.375   3.180
    1TYR    SC1  518   4.225   3.072   3.251
    1TYR    SC2  519   4.194   2.804   3.239
    1TYR    SC3  520   4.258   2.922   3.473
    2PHE     BB  521   4.341   3.479   3.479
    2PHE    SC1  522   4.480   3.744   3.449
    2PHE    SC2  523   4.570   3.964   3.577
    2PHE    SC3  524   4.722   3.846   3.388
    3TYR     BB  525   4.582   3.286   3.596
    3TYR    SC1  526   4.540   3.083   3.818
    3TYR    SC2  527   4.525   2.817   3.863
    3TYR    SC3  528   4.509   2.990   4.070
    1TYR     BB  529   7.893   0.650   5.504
    1TYR    SC1  530   7.704   0.782   5.712
    1TYR    SC2  531   7.578   0.780   5.951
    1TYR    SC3  532   7.733   0.990   5.882
    2PHE     BB  533   0.129   0.567   5.731
    2PHE    SC1  534   0.230   0.293   5.645
    2PHE    SC2  535   0.183   0.028   5.618
    2PHE    SC3  536   0.382   0.146   5.477
    3TYR     BB  537   0.088   0.553   6.062
    3TYR    SC1  538   7.933   0.747   6.231
    3TYR    SC2  539   7.720   0.816   6.382
    3TYR    SC3  540   7.905   1.002   6.316
    1TYR     BB  541   0.718   4.370   4.105
    1TYR    SC1  542   0.958   4.352   4.324
    1TYR    SC2  543   1.142   4.258   4.498
    1TYR    SC3  544   1.221   4.382   4.271
    2PHE     BB  545   0.869   4.130   3.903
    2PHE    SC1  546   0.674   4.024   3.701
    2PHE    SC2  547   0.549   3.797   3.624
    2PHE    SC3  548   0.452   4.037   3.547
    3TYR     BB  549   0.931   3.895   4.126
    3TYR    SC1  550   0.863   3.630   3.986
    3TYR    SC2  551   0.646   3.481   3.927
    3TYR    SC3  552   0.881   3.361   3.984
    1TYR     BB  553   1.736   4.054   2.908
    1TYR    SC1  554   1.722   4.115   2.607
    1TYR    SC2  555   1.726   4.112   2.337
    1TYR    SC3  556   1.837   4.318   2.471
    2PHE     BB  557   2.016   4.241   2.965
    2PHE    SC1  558   2.134   4.083   3.194
    2PHE    SC2  559   2.279   3.973   3.394
    2PHE    SC3  560   2.018   3.908   3.365
    3TYR     BB  561   1.960   4.561   2.900
    3TYR    SC1  562   2.165   4.611   2.666
    3TYR    SC2  563   2.288   4.746   2.467
    3TYR    SC3  564   2.433   4.598   2.640
    1TYR     BB  565   7.086   1.809   6.722
    1TYR    SC1  566   6.996   2.087   6.822
    1TYR    SC2  567   6.989   2.275   7.016
    1TYR    SC3  568   6.835   2.302   6.796
    2PHE     BB  569   7.398   1.853   6.628
    2PHE    SC1  570   7.614   1.696   6.783
    2PHE    SC2  571   7.881   1.720   6.818
    2PHE    SC3  572   7.734   1.575   6.992
    3TYR     BB  573   7.496   2.177   6.748
    3TYR    SC1  574   7.294   2.350   6.600
    3TYR    SC2  575   7.137   2.564   6.547
    3TYR    SC3  576   7.099   2.332   6.414
    1TYR     BB  577   6.066   7.757   1.669
    1TYR    SC1  578   5.984   7.464   1.577
    1TYR    SC2  579   5.873   7.229   1.649
    1TYR    SC3  580   5.852   7.315   1.394
    2PHE     BB  581   5.937   0.095   1.648
    2PHE    SC1  582   5.686   0.073   1.828
    2PHE    SC2  583   5.433   0.009   1.896
    2PHE    SC3  584   5.621   0.038   2.088
    3TYR     BB  585   6.207   0.304   1.521
    3TYR    SC1  586   6.260   0.554   1.712
    3TYR    SC2  587   6.169   0.785   1.818
    3TYR    SC3  588   6.431   0.724   1.833
    1TYR     BB  589   1.204   7.417   1.236
    1TYR    SC1  590   1.210   7.148   1.400
    1TYR    SC2  591   1.231   6.879   1.392
    1TYR    SC3  592   1.290   7.012   1.619
    2PHE     BB  593   1.156   7.302   0.940
    2PHE    SC1  594   1.371   7.395   0.755
    2PHE    SC2  595   1.620   7.372   0.653
    2PHE    SC3  596   1.420   7.468   0.500
    3TYR     BB  597   1.113   6.985   0.934
    3TYR    SC1  598   1.369   6.801   0.946
    3TYR    SC2  599   1.487   6.587   0.831
    3TYR    SC3  600   1.567   6.669   1.075
    1TYR     BB  601   6.477   1.502   6.375
    1TYR    SC1  602   6.189   1.439   6.281
    1TYR    SC2  603   5.928   1.424   6.348
    1TYR    SC3  604   6.038   1.233   6.192
    2PHE     BB  605   6.567   1.163   6.406
    2PHE    SC1  606   6.857   1.175   6.453
    2PHE    SC2  607   7.038   1.371   6.492
    2PHE    SC3  608   7.075   1.128   6.605
    3TYR     BB  609   6.346   1.000   6.551
    3TYR    SC1  610   6.172   1.214   6.691
    3TYR    SC2  611   5.940   1.295   6.802
    3TYR    SC3  612   6.151   1.463   6.791
    1TYR     BB  613   2.182   2.785   1.189
    1TYR    SC1  614   2.056   3.057   1.077
    1TYR    SC2  615   2.085   3.228   0.870
    1TYR    SC3  616   1.846   3.203   0.992
    2PHE     BB  617   2.172   2.619   0.923
    2PHE    SC1  618   2.432   2.551   0.792
    2PHE    SC2  619   2.503   2.455   0.550
    2PHE    SC3  620   2.693   2.535   0.725
    3TYR     BB  621   1.883   2.649   0.791
    3TYR    SC1  622   1.874   2.902   0.614
    3TYR    SC2  623   1.882   2.983   0.357
    3TYR    SC3  624   1.781   3.146   0.547
    1TYR     BB  625   7.895   7.684   4.437
    1TYR    SC1  626   7.717   7.448   4.347
    1TYR    SC2  627   7.674   7.225   4.201
    1TYR    SC3  628   7.465   7.371   4.290
    2PHE     BB  629   0.215   7.551   4.417
    2PHE    SC1  630   0.416   7.751   4.545
    2PHE    SC2  631   0.654   7.856   4.618
    2PHE    SC3  632   0.470   7.796   4.806
    3TYR     BB  633   0.229   7.324   4.668
    3TYR    SC1  634   7.939   7.261   4.740
    3TYR    SC2  635   7.740   7.275   4.921
    3TYR    SC3  636   7.699   7.151   4.685
    1TYR     BB  637   3.882   0.880   3.550
    1TYR    SC1  638   3.790   1.046   3.775
    1TYR    SC2  639   3.708   1.285   3.871
    1TYR    SC3  640   3.788   1.091   4.041
    2PHE     BB  641   3.706   0.681   3.413
    2PHE    SC1  642   3.837   0.632   3.138
    2PHE    SC2  643   4.073   0.569   3.023
    2PHE    SC3  644   3.843   0.477   2.917
    3TYR     BB  645   3.673   0.369   3.534
    3TYR    SC1  646   3.765   0.191   3.296
    3TYR    SC2  647   3.738   0.008   3.100
    3TYR    SC3  648   3.979   0.117   3.151
    1TYR     BB  649   2.639   3.476   2.102
    1TYR    SC1  650   2.417   3.479   2.321
    1TYR    SC2  651   2.149   3.443   2.318
    1TYR    SC3  652   2.292   3.380   2.539
    2PHE     BB  653   2.594   3.147   2.009
    2PHE    SC1  654   2.587   3.153   1.704
    2PHE    SC2  655   2.453   3.037   1.500
    2PHE    SC3  656   2.691   3.157   1.455
    3TYR     BB  657   2.316   3.016   2.124
    3TYR    SC1  658   2.308   2.715   2.130
    3TYR    SC2  659   2.172   2.487   2.078
    3TYR    SC3  660   2.403   2.478   2.218
    1TYR     BB  661   7.422   5.469   1.789
    1TYR    SC1  662   7.588   5.500   2.043
    1TYR    SC2  663   7.776   5.491   2.237
    1TYR    SC3  664   7.603   5.698   2.226
    2PHE     BB  665   7.650   5.648   1.578
    2PHE    SC1  666   7.734   5.392   1.428
    2PHE    SC2  667   7.850   5.220   1.255
    2PHE    SC3  668   7.680   5.128   1.443
    3TYR     BB  669   7.924   5.732   1.763
    3TYR    SC1  670   0.099   5.964   1.678
    3TYR    SC2  671   0.158   6.216   1.756
    3TYR    SC3  672   0.196   6.142   1.499
    1TYR     BB  673   5.735   7.701   6.015
    1TYR    SC1  674   5.470   7.635   6.175
    1TYR    SC2  675   5.285   7.467   6.278
    1TYR    SC3  676   5.232   7.731   6.259
    2PHE     BB  677   6.001   7.524   6.058
    2PHE    SC1  678   6.226   7.533   5.849
    2PHE    SC2  679   6.433   7.378   5.773
    2PHE    SC3  680   6.426   7.638   5.702
    3TYR     BB  681   6.016   7.369   6.356
    3TYR    SC1  682   5.800   7.532   6.505
    3TYR    SC2  683   5.565   7.590   6.625
    3TYR    SC3  684   5.765   7.772   6.625
    1TYR     BB  685   2.127   0.121   1.889
    1TYR    SC1  686   1.857   7.981   1.867
    1TYR    SC2  687   1.664   7.873   1.712
    1TYR    SC3  688   1.742   7.748   1.939
    2PHE     BB  689   2.340   7.850   1.922
    2PHE    SC1  690   2.583   7.936   1.755
    2PHE    SC2  691   2.822   0.062   1.757
    2PHE    SC3  692   2.720   7.968   1.525
    3TYR     BB  693   2.245   7.527   1.889
    3TYR    SC1  694   2.067   7.458   2.133
    3TYR    SC2  695   1.844   7.492   2.283
    3TYR    SC3  696   2.011   7.286   2.333
    1TYR     BB  697   6.265   7.103   1.197
    1TYR    SC1  698   6.276   7.020   1.504
    1TYR    SC2  699   6.166   6.854   1.686
    1TYR    SC3  700   6.427   6.922   1.705
    2PHE     BB  701   6.286   6.797   1.039
    2PHE    SC1  702   6.038   6.789   0.852
    2PHE    SC2  703   5.886   6.824   0.631
    2PHE    SC3  704   5.796   6.669   0.833
    3TYR     BB  705   6.332   6.587   1.268
    3TYR    SC1  706   6.600   6.609   1.409
    3TYR    SC2  707   6.813   6.723   1.531
    3TYR    SC3  708   6.830   6.470   1.437
    1TYR     BB  709   1.565   5.124   5.899
    1TYR    SC1  710   1.686   5.387   6.003
    1TYR    SC2  711   1.899   5.448   6.157
    1TYR    SC3  712   1.819   5.619   5.965
    2PHE     BB  713   1.843   4.922   6.014
    2PHE    SC1  714   1.915   4.801   5.747
    2PHE    SC2  715   2.065   4.805   5.523
    2PHE    SC3  716   1.929   4.582   5.591
    3TYR     BB  717   2.105   4.992   6.205
    3TYR    SC1  718   2.394   5.050   6.089
    3TYR    SC2  719   2.648   4.969   6.046
    3TYR    SC3  720   2.580   5.228   6.007
    1TYR     BB  721   4.000   2.054   6.658
    1TYR    SC1  722   3.792   1.870   6.507
    1TYR    SC2  723   3.737   1.766   6.263
    1TYR    SC3  724   3.699   1.617   6.485
    2PHE     BB  725   4.266   1.861   6.621
    2PHE    SC1  726   4.465   1.945   6.408
    2PHE    SC2  727   4.632   1.814   6.242
    2PHE    SC3  728   4.625   2.084   6.241
    3TYR     BB  729   4.212   1.572   6.613
    3TYR    SC1  730   4.170   1.293   6.710
    3TYR    SC2  731   4.128   1.048   6.604
    3TYR    SC3  732   4.198   1.073   6.864
    1TYR     BB  733   6.660   5.812   5.325
    1TYR    SC1  734   6.459   5.627   5.177
    1TYR    SC2  735   6.283   5.603   4.973
    1TYR    SC3  736   6.342   5.388   5.125
    2PHE     BB  737   6.897   5.864   5.090
    2PHE    SC1  738   7.159   5.798   5.229
    2PHE    SC2  739   7.321   5.593   5.298
    2PHE    SC3  740   7.417   5.845   5.295
    3TYR     BB  741   6.734   5.915   4.822
    3TYR    SC1  742   6.660   5.647   4.702
    3TYR    SC2  743   6.693   5.459   4.511
    3TYR    SC3  744   6.627   5.386   4.762
    1TYR     BB  745   0.504   3.627   1.125
    1TYR    SC1  746   0.381   3.911   1.118
    1TYR    SC2  747   0.337   4.174   1.165
    1TYR    SC3  748   0.153   4.028   1.032
    2PHE     BB  749   0.262   3.464   0.986
    2PHE    SC1  750   0.353   3.274   0.768
    2PHE    SC2  751   0.419   3.021   0.702
    2PHE    SC3  752   0.288   3.177   0.525
    3TYR     BB  753   7.978   3.528   1.148
    3TYR    SC1  754   0.065   3.707   1.390
    3TYR    SC2  755   0.103   3.947   1.507
    3TYR    SC3  756   0.257   3.737   1.577
    1TYR     BB  757   0.787   2.510   1.655
    1TYR    SC1  758   1.002   2.652   1.481
    1TYR    SC2  759   1.232   2.631   1.341
    1TYR    SC3  760   1.098   2.865   1.345
    2PHE     BB  761   0.532   2.492   1.502
    2PHE    SC1  762   0.472   2.191   1.457
    2PHE    SC2  763   0.297   1.987   1.485
    2PHE    SC3  764   0.535   1.946   1.363
    3TYR     BB  765   0.534   2.672   1.232
    3TYR    SC1  766   0.267   2.820   1.198
    3TYR    SC2  767   0.117   2.995   1.057
    3TYR    SC3  768   0.007   2.857   1.261
    1TYR     BB  769   0.942   3.529   7.435
    1TYR    SC1  770   1.213   3.436   7.537
    1TYR    SC2  771   1.392   3.501   7.728
    1TYR    SC3  772   1.416   3.267   7.594
    2PHE     BB  773   0.876   3.778   7.664
    2PHE    SC1  774   0.879   4.007   7.446
    2PHE    SC2  775   0.968   4.227   7.318
    2PHE    SC3  776   0.895   4.008   7.177
    3TYR     BB  777   1.085   3.873   7.907
    3TYR    SC1  778   1.168   3.740   0.180
    3TYR    SC2  779   1.357   3.702   0.368
    3TYR    SC3  780   1.105   3.618   0.412
    1TYR     BB  781   5.488   4.909   0.844
    1TYR    SC1  782   5.201   4.974   0.732
    1TYR    SC2  783   5.023   5.156   0.642
    1TYR    SC3  784   5.007   4.899   0.560
    2PHE     BB  785   5.677   4.914   0.570
    2PHE    SC1  786   5.833   5.173   0.590
    2PHE    SC2  787   6.035   5.331   0.672
    2PHE    SC3  788   5.846   5.429   0.505
    3TYR     BB  789   5.544   4.717   0.359
    3TYR    SC1  790   5.311   4.567   0.510
    3TYR    SC2  791   5.066   4.453   0.519
    3TYR    SC3  792   5.204   4.496   0.748
    1TYR     BB  793   7.673   5.755   2.993
    1TYR    SC1  794   7.493   6.016   2.994
    1TYR    SC2  795   7.409   6.261   3.072
    1TYR    SC3  796   7.264   6.118   2.894
    2PHE     BB  797   7.795   5.751   2.695
    2PHE    SC1  798   0.054   5.586   2.680
    2PHE    SC2  799   0.193   5.365   2.609
    2PHE    SC3  800   0.324   5.589   2.684
    3TYR     BB  801   7.846   6.013   2.520
    3TYR    SC1  802   0.084   5.892   2.329
    3TYR    SC2  803   0.190   5.665   2.227
    3TYR    SC3  804   0.255   5.904   2.120
    1TYR     BB  805   0.348   4.576   4.857
    1TYR    SC1  806   0.167   4.332   4.901
    1TYR    SC2  807   0.001   4.176   5.046
    1TYR    SC3  808   0.023   4.138   4.780
    2PHE     BB  809   0.692   4.487   4.871
    2PHE    SC1  810   0.798   4.770   4.824
    2PHE    SC2  811   0.728   5.022   4.758
    2PHE    SC3  812   0.885   4.978   4.973
    3TYR     BB  813   0.749   4.432   5.192
    3TYR    SC1  814   0.491   4.461   5.335
    3TYR    SC2  815   0.315   4.551   5.518
    3TYR    SC3  816   0.260   4.328   5.376
    1TYR     BB  817   3.211   5.071   1.616
    1TYR    SC1  818   3.040   5.337   1.591
    1TYR    SC2  819   3.063   5.601   1.643
    1TYR    SC3  820   2.902   5.517   1.443
    2PHE     BB  821   3.509   5.178   1.512
    2PHE    SC1  822   3.728   5.101   1.706
    2PHE    SC2  823   3.875   4.911   1.831
    2PHE    SC3  824   3.884   5.167   1.917
    3TYR     BB  825   3.527   5.517   1.470
    3TYR    SC1  826   3.599   5.515   1.165
    3TYR    SC2  827   3.731   5.565   0.935
    3TYR    SC3  828   3.669   5.311   1.003
    1TYR     BB  829   4.897   1.933   4.067
    1TYR    SC1  830   5.027   1.806   3.815
    1TYR    SC2  831   4.934   1.661   3.607
    1TYR    SC3  832   5.108   1.863   3.564
    2PHE     BB  833   4.712   2.161   3.878
    2PHE    SC1  834   4.724   2.423   4.023
    2PHE    SC2  835   4.896   2.626   4.068
    2PHE    SC3  836   4.686   2.589   4.232
    3TYR     BB  837   4.590   2.017   3.637
    3TYR    SC1  838   4.743   2.077   3.368
    3TYR    SC2  839   4.707   2.098   3.102
    3TYR    SC3  840   4.944   2.165   3.212
    1TYR     BB  841   1.648   4.938   6.930
    1TYR    SC1  842   1.543   5.090   6.666
    1TYR    SC2  843   1.462   5.338   6.596
    1TYR    SC3  844   1.608   5.190   6.424
    2PHE     BB  845   1.721   5.177   7.124
    2PHE    SC1  846   2.009   5.131   7.223
    2PHE    SC2  847   2.209   5.196   7.392
    2PHE    SC3  848   2.176   4.940   7.316
    3TYR     BB  849   1.678   5.482   7.020
    3TYR    SC1  850   1.966   5.590   7.025
    3TYR    SC2  851   2.200   5.588   7.159
    3TYR    SC3  852   2.200   5.601   6.889
    1TYR     BB  853   3.624   6.033   5.979
    1TYR    SC1  854   3.568   6.127   6.265
    1TYR    SC2  855   3.617   6.208   6.518
    1TYR    SC3  856   3.381   6.091   6.456
    2PHE     BB  857   3.351   6.104   5.830
    2PHE    SC1  858   3.333   6.355   5.661
    2PHE    SC2  859   3.193   6.494   5.478
    2PHE    SC3  860   3.448   6.562   5.532
    3TYR     BB  861   3.082   6.079   6.020
    3TYR    SC1  862   3.092   6.330   6.191
    3TYR    SC2  863   3.205   6.509   6.359
    3TYR    SC3  864   2.938   6.508   6.322
    1TYR     BB  865   5.403   7.092   7.881
    1TYR    SC1  866   5.296   7.020   7.601
    1TYR    SC2  867   5.113   7.047   7.405
    1TYR    SC3  868   5.375   7.025   7.343
    2PHE     BB  869   5.615   7.349   7.757
    2PHE    SC1  870   5.581   7.566   7.962
    2PHE    SC2  871   5.560   7.832   0.009
    2PHE    SC3  872   5.410   7.657   0.151
    3TYR     BB  873   5.584   7.482   7.473
    3TYR    SC1  874   5.327   7.476   7.305
    3TYR    SC2  875   5.089   7.591   7.249
    3TYR    SC3  876   5.171   7.375   7.109
    1TYR     BB  877   4.956   3.711   6.158
    1TYR    SC1  878   5.103   3.709   6.428
    1TYR    SC2  879   5.168   3.541   6.630
    1TYR    SC3  880   5.270   3.791   6.624
    2PHE     BB  881   4.947   3.401   6.068
    2PHE    SC1  882   4.655   3.334   6.020
    2PHE    SC2  883   4.437   3.285   5.869
    2PHE    SC3  884   4.423   3.265   6.138
    3TYR     BB  885   5.069   3.179   6.288
    3TYR    SC1  886   5.354   3.097   6.204
    3TYR    SC2  887   5.574   2.962   6.281
    3TYR    SC3  888   5.580   3.113   6.057
    1TYR     BB  889   2.009   2.332   5.803
    1TYR    SC1  890   2.152   2.085   5.900
    1TYR    SC2  891   2.400   1.979   5.916
    1TYR    SC3  892   2.217   1.924   6.107
    2PHE     BB  893   2.032   2.323   5.458
    2PHE    SC1  894   2.257   2.525   5.413
    2PHE    SC2  895   2.448   2.649   5.558
    2PHE    SC3  896   2.321   2.782   5.360
    3TYR     BB  897   2.131   2.032   5.372
    3TYR    SC1  898   2.420   2.011   5.464
    3TYR    SC2  899   2.596   1.822   5.542
    3TYR    SC3  900   2.685   2.060   5.449
    1TYR     BB  901   6.022   0.194   7.378
    1TYR    SC1  902   6.015   0.196   7.067
    1TYR    SC2  903   6.050   0.042   6.848
    1TYR    SC3  904   5.846   0.218   6.857
    2PHE     BB  905   5.853   7.903   7.417
    2PHE    SC1  906   5.903   7.813   7.700
    2PHE    SC2  907   6.026   7.620   7.843
    2PHE    SC3  908   6.010   7.871   7.941
    3TYR     BB  909   6.010   7.687   7.213
    3TYR    SC1  910   5.840   7.514   7.033
    3TYR    SC2  911   5.872   7.294   6.879
    3TYR    SC3  912   5.634   7.344   6.996
    1TYR     BB  913   0.499   4.902   5.792
    1TYR    SC1  914   0.381   5.187   5.810
    1TYR    SC2  915   0.158   5.338   5.829
    1TYR    SC3  916   0.393   5.429   5.927
    2PHE     BB  917   0.367   4.727   6.043
    2PHE    SC1  918   0.258   4.455   5.959
    2PHE    SC2  919   0.303   4.202   5.877
    2PHE    SC3  920   0.062   4.316   5.836
    3TYR     BB  921   0.148   4.967   6.205
    3TYR    SC1  922   0.386   5.147   6.288
    3TYR    SC2  923   0.567   5.217   6.476
    3TYR    SC3  924   0.650   5.138   6.232
    1TYR     BB  925   0.564   2.820   7.956
    1TYR    SC1  926   0.401   2.826   7.679
    1TYR    SC2  927   0.257   2.994   7.524
    1TYR    SC3  928   0.362   2.768   7.418
    2PHE     BB  929   0.541   3.154   0.046
    2PHE    SC1  930   0.691   3.168   0.316
    2PHE    SC2  931   0.843   3.063   0.513
    2PHE    SC3  932   0.762   3.321   0.528
    3TYR     BB  933   0.578   3.327   7.742
    3TYR    SC1  934   0.752   3.112   7.589
    3TYR    SC2  935   1.001   3.007   7.596
    3TYR    SC3  936   0.807   2.884   7.454
    1TYR     BB  937   2.661   5.081   2.482
    1TYR    SC1  938   2.524   5.035   2.752
    1TYR    SC2  939   2.584   4.932   2.995
    1TYR    SC3  940   2.327   4.953   2.917
    2PHE     BB  941   2.516   5.324   2.342
    2PHE    SC1  942   2.518   5.345   2.039
    2PHE    SC2  943   2.359   5.468   1.858
    2PHE    SC3  944   2.617   5.414   1.798
    3TYR     BB  945   2.451   5.574   2.522
    3TYR    SC1  946   2.390   5.488   2.813
    3TYR    SC2  947   2.303   5.625   3.029
    3TYR    SC3  948   2.388   5.370   3.056
    1TYR     BB  949   3.070   1.629   2.051
    1TYR    SC1  950   3.240   1.884   1.975
    1TYR    SC2  951   3.253   2.066   1.776
    1TYR    SC3  952   3.360   2.122   2.017
    2PHE     BB  953   2.780   1.748   1.941
    2PHE    SC1  954   2.554   1.556   1.969
    2PHE    SC2  955   2.298   1.514   1.897
    2PHE    SC3  956   2.461   1.304   1.944
    3TYR     BB  957   2.862   1.750   1.612
    3TYR    SC1  958   2.863   2.047   1.554
    3TYR    SC2  959   2.947   2.304   1.544
    3TYR    SC3  960   2.684   2.249   1.559
    1TYR     BB  961   1.178   5.359   1.068
    1TYR    SC1  962   1.086   5.651   1.090
    1TYR    SC2  963   0.917   5.861   1.070
    1TYR    SC3  964   1.180   5.903   1.114
    2PHE     BB  965   1.316   5.281   1.338
    2PHE    SC1  966   1.227   4.999   1.411
    2PHE    SC2  967   1.290   4.736   1.418
    2PHE    SC3  968   1.046   4.819   1.498
    3TYR     BB  969   1.397   5.487   1.524
    3TYR    SC1  970   1.211   5.735   1.538
    3TYR    SC2  971   0.949   5.801   1.517
    3TYR    SC3  972   1.135   5.994   1.553
    1TYR     BB  973   2.099   5.311   1.096
    1TYR    SC1  974   2.158   5.195   0.822
    1TYR    SC2  975   2.114   4.996   0.644
    1TYR    SC3  976   2.312   5.174   0.601
    2PHE     BB  977   1.858   5.505   1.203
    2PHE    SC1  978   1.892   5.492   1.501
    2PHE    SC2  979   1.980   5.633   1.714
    2PHE    SC3  980   1.884   5.383   1.748
    3TYR     BB  981   1.611   5.633   1.103
    3TYR    SC1  982   1.614   5.919   1.012
    3TYR    SC2  983   1.661   6.103   0.820
    3TYR    SC3  984   1.553   6.178   1.056
    1TYR     BB  985   4.995   6.271   3.321
    1TYR    SC1  986   4.916   6.407   3.596
    1TYR    SC2  987   4.847   6.642   3.708
    1TYR    SC3  988   4.848   6.417   3.857
    2PHE     BB  989   4.736   6.092   3.250
    2PHE    SC1  990   4.519   6.260   3.104
    2PHE    SC2  991   4.349   6.464   3.056
    2PHE    SC3  992   4.367   6.259   2.881
    3TYR     BB  993   4.628   5.977   3.560
    3TYR    SC1  994   4.483   6.253   3.629
    3TYR    SC2  995   4.386   6.469   3.500
    3TYR    SC3  996   4.393   6.464   3.770
    1TYR     BB  997   5.018   7.633   2.757
    1TYR    SC1  998   5.175   7.651   2.486
    1TYR    SC2  999   5.325   7.697   2.267
    1TYR    SC3 1000   5.203   7.459   2.300
    2PHE     BB 1001   5.047   7.270   2.768
    2PHE    SC1 1002   4.928   7.210   3.040
    2PHE    SC2 1003   5.009   7.137   3.288
    2PHE    SC3 1004   4.759   7.231   3.250
    3TYR     BB 1005   5.382   7.226   2.726
    3TYR    SC1 1006   5.545   6.961   2.691
    3TYR    SC2 1007   5.764   6.815   2.752
    3TYR    SC3 1008   5.584   6.720   2.575
    1TYR     BB 1009   6.632   4.583   2.217
    1TYR    SC1 1010   6.872   4.746   2.318
    1TYR    SC2 1011   7.137   4.763   2.268
    1TYR    SC3 1012   7.043   4.822   2.514
    2PHE     BB 1013   6.739   4.440   1.950
    2PHE    SC1 1014   6.525   4.323   1.773
    2PHE    SC2 1015   6.319   4.329   1.599
    2PHE    SC3 1016   6.462   4.102   1.630
    3TYR     BB 1017   7.038   4.528   1.846
    3TYR    SC1 1018   7.000   4.840   1.846
    3TYR    SC2 1019   7.114   5.083   1.816
    3TYR    SC3 1020   6.905   5.052   1.984
    1TYR     BB 1021   3.816   1.508   5.542
    1TYR    SC1 1022   3.573   1.511   5.339
    1TYR    SC2 1023   3.500   1.596   5.093
    1TYR    SC3 1024   3.312   1.544   5.280
    2PHE     BB 1025   3.641   1.476   5.852
    2PHE    SC1 1026   3.813   1.328   6.048
    2PHE    SC2 1027   3.945   1.298   6.282
    2PHE    SC3 1028   3.899   1.084   6.124
    3TYR     BB 1029   3.351   1.538   6.019
    3TYR    SC1 1030   3.123   1.678   5.857
    3TYR    SC2 1031   3.023   1.711   5.609
    3TYR    SC3 1032   3.005   1.911   5.790
    1TYR     BB 1033   1.203   7.323   5.040
    1TYR    SC1 1034   1.051   7.058   5.024
    1TYR    SC2 1035   1.034   6.817   5.145
    1TYR    SC3 1036   0.825   6.912   5.002
    2PHE     BB 1037   1.447   7.246   5.274
    2PHE    SC1 1038   1.569   7.528   5.309
    2PHE    SC2 1039   1.498   7.771   5.215
    2PHE    SC3 1040   1.756   7.721   5.277
    3TYR     BB 1041   1.284   7.105   5.496
    3TYR    SC1 1042   0.979   7.124   5.477
    3TYR    SC2 1043   0.745   7.171   5.603
    3TYR    SC3 1044   0.773   7.235   5.342
    1TYR     BB 1045   4.587   5.900   6.051
    1TYR    SC1 1046   4.430   5.652   6.164
    1TYR    SC2 1047   4.442   5.413   6.289
    1TYR    SC3 1048   4.203   5.530   6.246
    2PHE     BB 1049   4.525   6.170   6.232
    2PHE    SC1 1050   4.618   6.422   6.089
    2PHE    SC2 1051   4.619   6.623   5.908
    2PHE    SC3 1052   4.830   6.589   6.073
    3TYR     BB 1053   4.643   6.248   6.550
    3TYR    SC1 1054   4.422   6.427   6.668
    3TYR    SC2 1055   4.357   6.666   6.777
    3TYR    SC3 1056   4.239   6.440   6.867
    1TYR     BB 1057   7.787   2.939   5.448
    1TYR    SC1 1058   0.042   3.015   5.292
    1TYR    SC2 1059   0.310   3.044   5.315
    1TYR    SC3 1060   0.171   3.202   5.145
    2PHE     BB 1061   7.650   2.658   5.303
    2PHE    SC1 1062   7.385   2.637   5.467
    2PHE    SC2 1063   7.219   2.781   5.623
    2PHE    SC3 1064   7.186   2.514   5.602
    3TYR     BB 1065   7.809   2.483   5.050
    3TYR    SC1 1066   0.052   2.642   4.918
    3TYR    SC2 1067   0.183   2.692   4.687
    3TYR    SC3 1068   0.252   2.824   4.912
    1TYR     BB 1069   6.521   0.153   5.535
    1TYR    SC1 1070   6.244   0.057   5.625
    1TYR    SC2 1071   6.095   0.001   5.843
    1TYR    SC3 1072   6.038   7.884   5.606
    2PHE     BB 1073   6.485   0.341   5.249
    2PHE    SC1 1074   6.735   0.513   5.264
    2PHE    SC2 1075   6.973   0.621   5.197
    2PHE    SC3 1076   6.942   0.503   5.437
    3TYR     BB 1077   6.244   0.507   5.124
    3TYR    SC1 1078   6.248   0.813   5.214
    3TYR    SC2 1079   6.294   1.015   5.387
    3TYR    SC3 1080   6.076   1.021   5.227
    1TYR     BB 1081   1.762   0.206   1.372
    1TYR    SC1 1082   2.004   0.025   1.424
    1TYR    SC2 1083   2.072   7.775   1.499
    1TYR    SC3 1084   2.263   7.949   1.420
    2PHE     BB 1085   1.590   0.048   1.169
    2PHE    SC1 1086   1.509   0.243   0.952
    2PHE    SC2 1087   1.604   0.379   0.738
    2PHE    SC3 1088   1.345   0.404   0.810
    3TYR     BB 1089   1.603   7.722   1.218
    3TYR    SC1 1090   1.870   7.624   1.114
    3TYR    SC2 1091   2.000   7.489   0.920
    3TYR    SC3 1092   2.074   7.459   1.178
    1TYR     BB 1093   0.136   3.257   4.645
    1TYR    SC1 1094   7.888   3.113   4.739
    1TYR    SC2 1095   7.618   3.119   4.747
    1TYR    SC3 1096   7.756   2.979   4.933
    2PHE     BB 1097   0.308   3.094   4.420
    2PHE    SC1 1098   0.544   3.293   4.369
    2PHE    SC2 1099   0.798   3.365   4.425
    2PHE    SC3 1100   0.614   3.553   4.365
    3TYR     BB 1101   0.089   2.928   4.232
    3TYR    SC1 1102   7.842   2.820   4.388
    3TYR    SC2 1103   7.743   2.662   4.584
    3TYR    SC3 1104   7.575   2.803   4.427
    1TYR     BB 1105   3.284   2.594   4.160
    1TYR    SC1 1106   3.380   2.695   3.882
    1TYR    SC2 1107   3.574   2.706   3.694
    1TYR    SC3 1108   3.340   2.835   3.654
    2PHE     BB 1109   3.171   2.299   4.135
    2PHE    SC1 1110   2.870   2.265   4.169
    2PHE    SC2 1111   2.678   2.074   4.170
    2PHE    SC3 1112   2.611   2.333   4.134
    3TYR     BB 1113   3.239   2.138   3.864
    3TYR    SC1 1114   3.229   2.333   3.619
    3TYR    SC2 1115   3.365   2.428   3.406
    3TYR    SC3 1116   3.095   2.423   3.403
    1TYR     BB 1117   7.490   2.912   2.913
    1TYR    SC1 1118   7.532   2.856   3.223
    1TYR    SC2 1119   7.470   2.924   3.477
    1TYR    SC3 1120   7.701   2.794   3.424
    2PHE     BB 1121   7.692   3.197   2.918
    2PHE    SC1 1122   7.538   3.417   2.793
    2PHE    SC2 1123   7.507   3.669   2.701
    2PHE    SC3 1124   7.291   3.524   2.775
    3TYR     BB 1125   7.862   3.255   3.213
    3TYR    SC1 1126   0.146   3.264   3.084
    3TYR    SC2 1127   0.235   3.191   2.840
    3TYR    SC3 1128   0.407   3.204   3.048
    1TYR     BB 1129   5.489   5.941   2.014
    1TYR    SC1 1130   5.730   5.894   2.203
    1TYR    SC2 1131   5.827   5.734   2.398
    1TYR    SC3 1132   5.979   5.935   2.300
    2PHE     BB 1133   5.635   5.963   1.710
    2PHE    SC1 1134   5.506   6.226   1.617
    2PHE    SC2 1135   5.362   6.406   1.758
    2PHE    SC3 1136   5.457   6.470   1.513
    3TYR     BB 1137   5.956   5.935   1.744
    3TYR    SC1 1138   6.027   6.189   1.904
    3TYR    SC2 1139   6.086   6.452   1.887
    3TYR    SC3 1140   6.151   6.313   2.109
    1TYR     BB 1141   4.115   6.379   1.303
    1TYR    SC1 1142   3.958   6.106   1.286
    1TYR    SC2 1143   3.758   5.937   1.220
    1TYR    SC3 1144   3.919   5.880   1.429
    2PHE     BB 1145   4.129   6.577   1.068
    2PHE    SC1 1146   4.371   6.771   1.070
    2PHE    SC2 1147   4.509   6.961   0.936
    2PHE    SC3 1148   4.553   6.922   1.199
    3TYR     BB 1149   3.875   6.531   0.883
    3TYR    SC1 1150   3.656   6.419   1.084
    3TYR    SC2 1151   3.392   6.422   1.142
    3TYR    SC3 1152   3.570   6.336   1.326
    1TYR     BB 1153   6.458   3.660   7.640
    1TYR    SC1 1154   6.678   3.558   7.827
    1TYR    SC2 1155   6.935   3.513   7.896
    1TYR    SC3 1156   6.738   3.466   0.074
    2PHE     BB 1157   6.472   3.968   7.625
    2PHE    SC1 1158   6.208   4.124   7.642
    2PHE    SC2 1159   6.112   4.318   7.803
    2PHE    SC3 1160   6.006   4.282   7.557
    3TYR     BB 1161   6.682   4.111   7.826
    3TYR    SC1 1162   6.776   3.939   0.072
    3TYR    SC2 1163   6.989   3.864   0.219
    3TYR    SC3 1164   6.741   3.846   0.323
    1TYR     BB 1165   6.478   5.522   3.346
    1TYR    SC1 1166   6.358   5.335   3.558
    1TYR    SC2 1167   6.362   5.113   3.712
    1TYR    SC3 1168   6.132   5.252   3.681
    2PHE     BB 1169   6.713   5.705   3.457
    2PHE    SC1 1170   6.975   5.617   3.317
    2PHE    SC2 1171   7.159   5.429   3.256
    2PHE    SC3 1172   7.164   5.668   3.130
    3TYR     BB 1173   6.786   5.728   3.775
    3TYR    SC1 1174   6.591   5.530   3.913
    3TYR    SC2 1175   6.559   5.324   4.084
    3TYR    SC3 1176   6.350   5.485   4.026
    1TYR     BB 1177   1.168   1.850   5.098
    1TYR    SC1 1178   1.418   2.032   5.143
    1TYR    SC2 1179   1.477   2.295   5.121
    1TYR    SC3 1180   1.675   2.111   5.130
    2PHE     BB 1181   0.913   2.020   4.994
    2PHE    SC1 1182   0.812   2.033   4.700
    2PHE    SC2 1183   0.584   2.051   4.556
    2PHE    SC3 1184   0.824   2.056   4.431
    3TYR     BB 1185   0.928   2.296   5.102
    3TYR    SC1 1186   1.092   2.309   5.356
    3TYR    SC2 1187   1.118   2.413   5.604
    3TYR    SC3 1188   1.246   2.184   5.540
    1TYR     BB 1189   3.464   4.563   4.829
    1TYR    SC1 1190   3.696   4.430   4.992
    1TYR    SC2 1191   3.822   4.405   5.229
    1TYR    SC3 1192   3.951   4.342   5.001
    2PHE     BB 1193   3.181   4.455   4.977
    2PHE    SC1 1194   2.938   4.571   4.817
    2PHE    SC2 1195   2.801   4.585   4.585
    2PHE    SC3 1196   2.746   4.758   4.785
    3TYR     BB 1197   3.281   4.374   5.280
    3TYR    SC1 1198   3.461   4.119   5.275
    3TYR    SC2 1199   3.514   3.887   5.403
    3TYR    SC3 1200   3.686   3.981   5.218
    4W        W 1201   4.018   5.387   1.405
    5W        W 1202   4.967   7.713   1.922
    6W        W 1203   3.691   4.203   0.546
    7W        W 1204   5.859   0.721   4.070
    8W        W 1205   3.471   7.402   2.117
    9W        W 1206   2.481   3.186   2.998
   10W        W 1207   3.596   7.333   5.135
   11W        W 1208   3.736   6.716   2.569
   12W        W 1209   2.944   3.563   6.262
   13W        W 1210   6.730   2.495   3.466
   14W        W 1211   0.658   6.786   5.923
   15W        W 1212   3.096   7.240   4.930
   16W        W 1213   6.023   6.560   3.137
   17W        W 1214   7.262   3.128   1.795
   18W        W 1215   4.546   7.164   6.602
   19W        W 1216   3.611   1.943   0.971
   20W        W 1217   4.438   4.121   4.034
   21W        W 1218   4.064   3.997   0.956
   22W        W 1219   5.306   4.290   0.107
   23W        W 1220   0.431   3.046   3.875
   24W        W 1221   5.177   2.295   5.594
   25W        W 1222   3.153   0.422   5.100
   26W        W 1223   1.637   4.499   3.857
   27W        W 1224   7.965   6.442   3.567
   28W        W 1225   7.237   0.924   2.902
   29W        W 1226   0.885   4.824   4.320
   30W        W 1227   7.539   7.052   5.544
   31W        W 1228   3.224   1.876   1.277
   32W        W 1229   4.464   0.747   5.291
   33W        W 1230   3.198   3.760   2.400
   34W        W 1231   3.686   3.366   0.533
   35W        W 1232   2.870   7.204   2.642
   36W        W 1233   5.708   1.042   3.672
   37W        W 1234   2.435   0.801   4.033
   38W        W 1235   3.699   4.407   6.892
   39W        W 1236   0.054   2.615   3.811
   40W        W 1237   4.539   6.263   2.361
   41W        W 1238   5.549   1.500   2.734
   42W        W 1239   5.024   6.113   6.210
   43W        W 1240   0.941   2.143   5.968
   44W        W 1241   4.836   0.785   0.133
   45W        W 1242   1.104   5.321   1.901
   46W        W 1243   2.929   7.220   1.170
   47W        W 1244   1.385   3.234   4.059
   48W        W 1245   3.469   0.431   1.517
   49W        W 1246   6.641   1.182   4.159
   50W        W 1247   1.656   0.872   3.404
   51W        W 1248   1.849   2.694   3.867
   52W        W 1249   3.980   7.127   2.776
   53W        W 1250   1.072   7.188   2.033
   54W        W 1251   5.118   5.579   0.953
   55W        W 1252   4.136   5.111   2.545
   56W        W 1253   6.196   1.693   4.683
   57W        W 1254   1.078   1.113   7.585
   58W        W 1255   6.314   3.663   3.929
   59W        W 1256   3.472   3.362   4.420
   60W        W 1257   2.970   3.844   0.376
   61W        W 1258   4.532   0.509   1.832
   62W        W 1259   3.635   3.567   4.927
   63W        W 1260   6.433   6.085   2.471
   64W        W 1261   7.133   1.121   0.428
   65W        W 1262   6.921   3.246   1.049
   66W        W 1263   5.558   5.233   6.777
   67W        W 1264   2.235   2.453   1.582
   68W        W 1265   6.049   4.883   7.846
   69W        W 1266   1.685   1.284   1.801
   70W        W 1267   0.600   0.975   7.424
   71W        W 1268   5.950   1.992   2.077
   72W        W 1269   5.164   5.970   3.727
   73W        W 1270   1.687   2.150   6.742
   74W        W 1271   5.122   2.598   1.824
   75W        W 1272   5.632   7.154   0.966
   76W        W 1273   1.464   4.463   2.855
   77W        W 1274   7.430   7.625   4.737
   78W        W 1275   0.916   0.228   1.193
   79W        W 1276   1.302   2.084   4.651
   80W        W 1277   1.774   0.385   6.696
   81W        W 1278   3.940   4.232   4.057
   82W        W 1279   2.524   4.968   5.566
   83W        W 1280   0.279   6.945   1.204
   84W        W 1281   5.998   5.728   5.359
   85W        W 1282   0.038   3.385   5.629
   86W        W 1283   2.264   3.685   0.868
   87W        W 1284   5.161   5.155   4.071
   88W        W 1285   5.861   4.107   1.331
   89W        W 1286   6.202   0.744   2.341
   90W        W 1287   2.196   4.478   6.400
   91W        W 1288   6.358   4.926   1.239
   92W        W 1289   2.346   4.818   5.070
   93W        W 1290   7.180   3.891   1.200
   94W        W 1291   3.802   5.747   5.559
   95W        W 1292   0.721   3.331   3.468
   96W        W 1293   2.583   4.093   5.734
   97W        W 1294   7.730   7.893   6.400
   98W        W 1295   2.874   4.442   0.513
   99W        W 1296   3.748   0.860   4.756
  100W        W 1297   3.579   5.087   4.807
  101W        W 1298   7.996   6.624   1.506
  102W        W 1299   0.542   3.235   5.719
  103W        W 1300   5.375   6.786   5.179
  104W        W 1301   1.809   0.069   2.829
  105W        W 1302   0.777   7.023   1.636
  106W        W 1303   2.004   0.140   5.934
  107W        W 1304   3.722   2.353   4.014
  108W        W 1305   5.399   0.115   6.577
  109W        W 1306   0.983   0.687   0.981
  110W        W 1307   2.576   6.846   6.532
  111W        W 1308   2.936   7.759   1.107
  112W        W 1309   3.579   4.563   2.884
  113W        W 1310   3.443   4.366   7.348
  114W        W 1311   2.584   5.065   3.448
  115W        W 1312   3.079   4.239   2.206
  116W        W 1313   1.465   6.158   5.148
  117W        W 1314   6.849   3.187   5.044
  118W        W 1315   3.988   4.848   5.110
  119W        W 1316   5.932   7.131   7.402
  120W        W 1317   3.659   0.788   1.827
  121W        W 1318   5.906   3.418   3.702
  122W        W 1319   2.856   2.791   2.265
  123W        W 1320   4.937   2.560   7.483
  124W        W 1321   7.368   6.267   4.327
  125W        W 1322   4.301   7.392   6.205
  126W        W 1323   4.132   2.885   5.983
  127W        W 1324   6.575   7.978   6.027
  128W        W 1325   6.387   6.562   6.668
  129W        W 1326   1.114   5.418   3.542
  130W        W 1327   4.578   5.340   2.636
  131W        W 1328   3.757   7.370   0.887
  132W        W 1329   3.869   6.617   4.786
  133W        W 1330   4.012   3.769   0.480
  134W        W 1331   4.380   1.852   0.870
  135W        W 1332   1.291   1.787   5.864
  136W        W 1333   0.863   5.155   2.414
  137W        W 1334   3.391   4.194   2.594
  138W        W 1335   4.520   5.127   2.163
  139W        W 1336   7.200   5.278   1.361
  140W        W 1337   4.842   2.926   1.567
  141W        W 1338   3.952   3.184   1.335
  142W        W 1339   2.571   6.789   3.796
  143W        W 1340   3.465   6.007   0.828
  144W        W 1341   6.143   5.824   2.793
  145W        W 1342   0.755   4.468   1.285
  146W        W 1343   7.962   1.060   1.303
  147W        W 1344   0.289   4.754   2.004
  148W        W 1345   4.890   5.133   6.415
  149W        W 1346   6.657   3.037   7.706
  150W        W 1347   4.121   3.324   1.815
  151W        W 1348   5.715   5.526   1.015
  152W        W 1349   0.082   3.685   5.039
  153W        W 1350   6.757   1.387   5.973
  154W        W 1351   2.512   4.584   1.381
  155W        W 1352   0.567   6.006   6.097
  156W        W 1353   6.750   1.069   1.622
  157W        W 1354   1.336   0.560   6.445
  158W        W 1355   0.479   6.576   1.655
  159W        W 1356   3.869   7.195   1.749
  160W        W 1357   5.843   0.780   0.049
  161W        W 1358   2.722   5.936   1.718
  162W        W 1359   7.283   6.961   6.511
  163W        W 1360   3.904   1.668   4.126
  164W        W 1361   3.495   3.352   0.025
  165W        W 1362   0.262   6.829   2.859
  166W        W 1363   3.609   3.791   0.836
  167W        W 1364   7.605   0.701   1.389
  168W        W 1365   1.500   6.712   5.246
  169W        W 1366   2.530   6.802   1.957
  170W        W 1367   6.544   5.128   0.775
  171W        W 1368   6.409   2.813   3.229
  172W        W 1369   5.884   1.135   7.661
  173W        W 1370   7.157   5.129   6.391
  174W        W 1371   7.139   5.506   4.802
  175W        W 1372   5.270   2.651   7.854
  176W        W 1373   4.599   3.889   6.461
  177W        W 1374   3.105   5.043   4.967
  178W        W 1375   5.861   3.353   4.793
  179W        W 1376   2.157   3.900   2.482
  180W        W 1377   1.567   1.178   5.089
  181W        W 1378   3.085   7.591   2.385
  182W        W 1379   1.320   6.679   1.988
  183W        W 1380   0.724   2.122   3.586
  184W        W 1381   3.593   4.635   4.212
  185W        W 1382   3.061   1.407   1.237
  186W        W 1383   5.899   3.997   0.819
  187W        W 1384   7.327   4.060   1.918
  188W        W 1385   2.682   3.459   0.604
  189W        W 1386   1.296   2.726   2.673
  190W        W 1387   2.088   0.181   4.428
  191W        W 1388   3.043   6.826   0.875
  192W        W 1389   5.623   6.138   2.636
  193W        W 1390   1.146   0.242   5.118
  194W        W 1391   6.623   3.002   0.217
  195W        W 1392   5.893   2.416   5.002
  196W        W 1393   6.554   7.761   5.230
  197W        W 1394   3.420   4.154   4.080
  198W        W 1395   5.510   6.620   4.323
  199W        W 1396   3.079   2.494   7.851
  200W        W 1397   0.898   4.535   0.787
  201W        W 1398   3.591   2.453   1.667
  202W        W 1399   1.137   3.438   2.576
  203W        W 1400   7.180   0.774   6.938
  204W        W 1401   2.454   5.162   6.945
  205W        W 1402   0.022   7.659   2.254
  206W        W 1403   5.350   6.462   3.876
  207W        W 1404   6.055   0.792   4.745
  208W        W 1405   7.283   6.346   5.211
  209W        W 1406   0.806   6.761   2.063
  210W        W 1407   0.842   4.045   0.989
  211W        W 1408   2.359   2.669   3.872
  212W        W 1409   0.931   3.202   6.622
  213W        W 1410   6.734   5.448   2.916
  214W        W 1411   6.989   2.721   7.953
  215W        W 1412   1.530   4.891   3.095
  216W        W 1413   1.226   4.607   1.907
  217W        W 1414   6.422   6.852   7.997
  218W        W 1415   3.342   5.925   4.441
  219W        W 1416   2.837   2.250   2.056
  220W        W 1417   7.422   5.952   4.805
  221W        W 1418   6.580   1.796   0.522
  222W        W 1419   7.309   6.687   1.387
  223W        W 1420   2.947   1.533   6.309
  224W        W 1421   5.628   3.479   6.432
  225W        W 1422   1.551   4.358   4.824
  226W        W 1423   2.133   4.790   1.115
  227W        W 1424   4.823   6.067   2.745
  228W        W 1425   1.316   3.155   0.364
  229W        W 1426   1.706   3.438   0.129
  230W        W 1427   2.898   5.407   4.151
  231W        W 1428   2.854   0.377   3.131
  232W        W 1429   6.256   3.682   4.935
  233W        W 1430   5.038   0.612   5.958
  234W        W 1431   2.343   6.939   5.477
  235W        W 1432   1.468   2.954   3.647
  236W        W 1433   2.355   2.908   4.343
  237W        W 1434   1.363   3.758   3.902
  238W        W 1435   1.354   5.651   0.661
  239W        W 1436   5.962   0.953   5.767
  240W        W 1437   6.371   4.124   2.958
  241W        W 1438   2.132   4.389   3.617
  242W        W 1439   1.252   2.689   7.284
  243W        W 1440   7.341   7.459   2.798
  244W        W 1441   1.027   7.928   2.436
  245W        W 1442   3.804   4.456   0.996
  246W        W 1443   2.902   4.074   4.164
  247W        W 1444   5.085   5.951   1.680
  248W        W 1445   1.786   1.609   5.295
  249W        W 1446   2.756   7.528   1.947
  250W        W 1447   2.507   3.217   5.150
  251W        W 1448   1.135   4.808   2.702
  252W        W 1449   2.485   1.539   3.627
  253W        W 1450   5.406   7.061   1.429
  254W        W 1451   6.068   5.059   4.858
  255W        W 1452   5.333   3.152   2.448
  256W        W 1453   5.495   4.859   2.713
  257W        W 1454   5.368   1.435   3.720
  258W        W 1455   5.685   4.741   6.689
  259W        W 1456   1.665   5.953   0.358
  260W        W 1457   7.958   0.172   2.904
  261W        W 1458   0.681   4.451   1.809
  262W        W 1459   6.637   5.060   3.232
  263W        W 1460   0.435   4.953   5.234
  264W        W 1461   7.526   6.462   4.777
  265W        W 1462   4.182   5.956   3.342
  266W        W 1463   5.051   4.277   7.674
  267W        W 1464   1.505   3.649   1.659
  268W        W 1465   2.072   4.145   5.788
  269W        W 1466   7.004   7.194   2.510
  270W        W 1467   1.297   5.885   3.663
  271W        W 1468   6.324   6.109   5.099
  272W        W 1469   2.982   4.371   7.043
  273W        W 1470   4.256   3.623   1.379
  274W        W 1471   5.671   6.286   7.911
  275W        W 1472   4.320   0.875   3.777
  276W        W 1473   4.152   1.148   5.335
  277W        W 1474   0.505   2.408   3.196
  278W        W 1475   2.700   2.670   3.004
  279W        W 1476   3.878   7.993   0.170
  280W        W 1477   5.890   6.215   5.950
  281W        W 1478   0.011   6.742   0.806
  282W        W 1479   2.002   1.516   1.496
  283W        W 1480   1.792   1.678   7.001
  284W        W 1481   7.962   5.038   2.302
  285W        W 1482   0.751   4.968   1.885
  286W        W 1483   0.462   5.711   1.408
  287W        W 1484   2.435   4.483   5.442
  288W        W 1485   4.746   6.746   4.537
  289W        W 1486   7.558   4.119   2.416
  290W        W 1487   4.815   0.678   6.844
  291W        W 1488   2.797   2.167   3.047
  292W        W 1489   6.283   0.988   1.379
  293W        W 1490   3.004   3.815   1.913
  294W        W 1491   6.828   3.787   0.831
  295W        W 1492   2.685   2.344   5.863
  296W        W 1493   5.980   0.725   6.782
  297W        W 1494   1.814   0.542   6.210
  298W        W 1495   6.132   6.524   7.716
  299W        W 1496   6.719   7.128   4.848
  300W        W 1497   4.584   4.266   6.791
  301W        W 1498   5.414   3.638   2.284
  302W        W 1499   6.452   4.601   3.101
  303W        W 1500   5.045   5.490   1.462
  304W        W 1501   1.786   1.420   2.546
  305W        W 1502   3.198   0.825   4.787
  306W        W 1503   6.942   7.596   4.929
  307W        W 1504   2.461   6.895   3.295
  308W        W 1505   6.779   1.621   7.677
  309W        W 1506   5.634   5.030   3.974
  310W        W 1507   0.230   2.089   6.668
  311W        W 1508   2.833   0.631   0.912
  312W        W 1509   3.088   5.661   7.121
  313W        W 1510   7.296   3.543   0.835
  314W        W 1511   4.988   1.274   7.095
  315W        W 1512   6.350   3.847   0.636
  316W        W 1513   1.292   4.961   2.251
  317W        W 1514   3.348   5.750   2.377
  318W        W 1515   6.207   4.146   6.731
  319W        W 1516   2.321   6.488   5.768
  320W        W 1517   1.340   4.445   2.373
  321W        W 1518   1.343   6.396   2.421
  322W        W 1519   0.798   1.475   1.371
  323W        W 1520   2.548   1.203   6.298
  324W        W 1521   3.368   1.573   2.438
  325W        W 1522   7.012   4.687   5.608
  326W        W 1523   2.882   3.501   7.164
  327W        W 1524   7.309   3.413   1.346
  328W        W 1525   6.537   7.550   7.146
  329W        W 1526   5.665   6.655   7.533
  330W        W 1527   1.927   0.399   2.249
  331W        W 1528   4.567   2.929   4.594
  332W        W 1529   4.695   7.520   6.926
  333W        W 1530   2.810   5.670   6.310
  334W        W 1531   6.380   1.724   2.093
  335W        W 1532   5.873   5.067   1.162
  336W        W 1533   5.411   1.803   3.137
  337W        W 1534   6.312   3.161   3.872
  338W        W 1535   4.813   4.934   7.119
  339W        W 1536   5.515   3.704   0.922
  340W        W 1537   0.837   5.592   6.162
  341W        W 1538   4.580   1.472   2.083
  342W        W 1539   0.494   2.017   4.040
  343W        W 1540   7.312   3.063   5.198
  344W        W 1541   4.314   4.995   5.576
  345W        W 1542   5.036   1.201   0.634
  346W        W 1543   4.434   3.673   2.131
  347W        W 1544   3.000   0.311   5.583
  348W        W 1545   2.295   5.583   4.942
  349W        W 1546   2.855   4.524   0.005
  350W        W 1547   2.370   2.954   0.503
  351W        W 1548   3.195   3.333   4.850
  352W        W 1549   0.113   3.885   5.510
  353W        W 1550   5.897   6.182   7.420
  354W        W 1551   5.539   1.575   5.089
  355W        W 1552   5.111   3.505   2.735
  356W        W 1553   4.244   4.679   3.318
  357W        W 1554   4.790   7.945   1.055
  358W        W 1555   1.307   1.795   2.943
  359W        W 1556   6.211   4.900   5.323
  360W        W 1557   4.360   0.611   6.637
  361W        W 1558   0.709   6.305   0.824
  362W        W 1559   2.325   4.299   2.234
  363W        W 1560   0.533   7.676   2.392
  364W        W 1561   7.080   1.702   0.593
  365W        W 1562   0.840   2.713   2.434
  366W        W 1563   1.803   4.987   3.814
  367W        W 1564   7.119   6.292   1.070
  368W        W 1565   3.742   5.125   4.312
  369W        W 1566   6.773   1.567   1.823
  370W        W 1567   6.293   4.065   2.115
  371W        W 1568   3.433   1.550   3.548
  372W        W 1569   0.302   3.254   1.453
  373W        W 1570   0.238   1.143   1.728
  374W        W 1571   0.885   0.635   4.924
  375W        W 1572   5.111   4.647   1.775
  376W        W 1573   1.680   4.361   3.336
  377W        W 1574   5.311   7.347   1.826
  378W        W 1575   1.903   2.933   3.385
  379W        W 1576   0.076   2.219   4.612
  380W        W 1577   2.670   3.976   7.136
  381W        W 1578   0.575   7.078   3.183
  382W        W 1579   6.297   6.041   6.188
  383W        W 1580   1.242   3.591   4.371
  384W        W 1581   2.952   7.248   5.894
  385W        W 1582   1.142   6.323   7.852
  386W        W 1583   0.885   1.829   5.551
  387W        W 1584   3.294   6.476   3.108
  388W        W 1585   2.209   3.424   0.399
  389W        W 1586   7.330   2.251   5.133
  390W        W 1587   5.972   3.618   7.666
  391W        W 1588   4.605   1.126   1.296
  392W        W 1589   3.949   1.811   5.122
  393W        W 1590   5.947   1.989   7.434
  394W        W 1591   0.515   5.803   4.023
  395W        W 1592   2.390   0.765   1.266
  396W        W 1593   3.590   1.862   0.455
  397W        W 1594   6.263   5.361   5.622
  398W        W 1595   1.188   2.054   4.087
  399W        W 1596   7.331   2.256   2.323
  400W        W 1597   2.667   2.047   7.157
  401W        W 1598   2.560   1.309   3.172
  402W        W 1599   0.394   3.918   4.097
  403W        W 1600   4.422   3.250   6.962
  404W        W 1601   2.967   5.154   6.978
  405W        W 1602   5.087   3.174   1.993
  406W        W 1603   0.634   6.725   5.431
  407W        W 1604   3.594   6.092   3.302
  408W        W 1605   7.289   0.121   6.608
  409W        W 1606   0.512   3.969   1.959
  410W        W 1607   6.496   4.992   6.950
  411W        W 1608   4.442   6.971   2.940
  412W        W 1609   5.844   0.283   6.373
  413W        W 1610   5.034   2.801   5.447
  414W        W 1611   0.899   2.287   1.156
  415W        W 1612   7.539   4.446   0.979
  416W        W 1613   5.748   4.278   4.327
  417W        W 1614   4.514   6.356   4.245
  418W        W 1615   4.383   6.436   1.895
  419W        W 1616   1.009   0.742   7.227
  420W        W 1617   3.123   3.923   7.387
  421W        W 1618   3.444   0.692   3.880
  422W        W 1619   1.436   5.589   4.721
  423W        W 1620   3.117   0.766   1.733
  424W        W 1621   6.943   2.724   0.480
  425W        W 1622   1.278   0.158   6.724
  426W        W 1623   5.030   7.063   1.009
  427W        W 1624   1.633   5.848   5.532
  428W        W 1625   3.348   4.057   6.939
  429W        W 1626   4.983   3.418   4.051
  430W        W 1627   2.384   1.836   1.500
  431W        W 1628   0.342   3.112   2.369
  432W        W 1629   5.135   1.293   2.882
  433W        W 1630   0.544   0.870   6.911
  434W        W 1631   1.583   2.096   7.236
  435W        W 1632   5.724   2.115   0.563
  436W        W 1633   6.596   4.304   3.984
  437W        W 1634   6.362   6.449   5.462
  438W        W 1635   0.041   0.791   6.776
  439W        W 1636   4.131   1.420   2.985
  440W        W 1637   7.084   5.637   2.163
  441W        W 1638   0.567   6.830   0.770
  442W        W 1639   3.237   3.746   3.857
  443W        W 1640   2.606   4.513   4.068
  444W        W 1641   0.270   7.558   6.066
  445W        W 1642   1.517   7.237   2.564
  446W        W 1643   1.653   3.084   5.410
  447W        W 1644   4.158   2.132   7.685
  448W        W 1645   7.918   1.945   1.812
  449W        W 1646   7.014   7.352   3.520
  450W        W 1647   6.164   7.116   0.349
  451W        W 1648   6.815   2.346   5.978
  452W        W 1649   2.884   2.637   3.824
  453W        W 1650   2.751   3.546   4.845
  454W        W 1651   6.678   2.757   5.658
  455W        W 1652   1.419   3.423   0.789
  456W        W 1653   1.389   1.437   2.187
  457W        W 1654   7.160   1.871   4.777
  458W        W 1655   7.572   3.890   5.093
  459W        W 1656   0.514   4.160   4.532
  460W        W 1657   4.368   6.801   6.295
  461W        W 1658   4.327   4.143   5.704
  462W        W 1659   3.918   2.571   7.612
  463W        W 1660   6.545   2.977   0.730
  464W        W 1661   1.236   5.514   2.359
  465W        W 1662   4.625   3.299   1.839
  466W        W 1663   2.891   7.378   5.409
  467W        W 1664   4.356   4.629   4.824
  468W        W 1665   4.658   3.978   2.477
  469W        W 1666   6.896   7.601   5.927
  470W        W 1667   5.172   2.617   1.226
  471W        W 1668   0.698   3.980   1.482
  472W        W 1669   6.923   6.553   0.554
  473W        W 1670   6.346   3.614   2.947
  474W        W 1671   1.891   2.269   3.040
  475W        W 1672   2.668   5.441   7.310
  476W        W 1673   5.554   1.850   2.376
  477W        W 1674   6.222   2.216   3.846
  478W        W 1675   2.834   7.093   4.128
  479W        W 1676   4.665   0.943   4.146
  480W        W 1677   3.684   3.078   4.804
  481W        W 1678   3.185   1.337   3.127
  482W        W 1679   5.145   6.787   2.913
  483W        W 1680   0.213   6.491   5.596
  484W        W 1681   0.965   5.988   7.491
  485W        W 1682   5.049   6.164   2.183
  486W        W 1683   7.087   2.133   3.627
  487W        W 1684   3.524   3.349   2.410
  488W        W 1685   4.947   3.296   7.025
  489W        W 1686   2.990   0.873   5.280
  490W        W 1687   1.814   2.091   4.626
  491W        W 1688   1.677   4.560   1.079
  492W        W 1689   3.258   7.321   0.793
  493W        W 1690   0.784   3.577   6.936
  494W        W 1691   7.164   5.212   2.804
  495W        W 1692   0.772   1.711   7.185
  496W        W 1693   5.395   4.574   4.056
  497W        W 1694   5.086   2.798   7.047
  498W        W 1695   1.474   3.000   4.944
  499W        W 1696   6.505   7.532   6.258
  500W        W 1697   4.466   3.743   0.768
  501W        W 1698   5.128   7.509   7.751
  502W        W 1699   6.950   7.816   6.910
  503W        W 1700   7.987   6.171   0.805
  504W        W 1701   7.728   0.258   5.796
  505W        W 1702   5.878   5.988   4.938
  506W        W 1703   6.550   0.405   0.186
  507W        W 1704   5.742   5.859   0.263
  508W        W 1705   4.342   2.901   1.631
  509W        W 1706   2.777   3.540   2.667
  510W        W 1707   2.840   1.660   5.132
  511W        W 1708   4.650   2.659   1.189
  512W        W 1709   7.336   7.938   6.060
  513W        W 1710   5.811   1.103   1.604
  514W        W 1711   6.455   4.961   4.538
  515W        W 1712   5.503   4.311   7.491
  516W        W 1713   1.380   4.756   6.230
  517W        W 1714   1.151   6.052   5.526
  518W        W 1715   3.990   4.134   1.430
  519W        W 1716   6.704   5.162   1.506
  520W        W 1717   4.562   7.423   0.389
  521W        W 1718   1.752   6.448   6.512
  522W        W 1719   6.614   4.229   6.324
  523W        W 1720   7.308   5.218   2.314
  524W        W 1721   0.109   3.660   2.764
  525W        W 1722   2.042   6.109   6.806
  526W        W 1723   6.269   2.329   3.285
  527W        W 1724   3.259   1.179   5.606
  528W        W 1725   5.424   3.271   1.146
  529W        W 1726   0.640   3.560   6.387
  530W        W 1727   3.631   6.549   6.010
  531W        W 1728   0.030   6.244   6.804
  532W        W 1729   5.666   4.609   1.221
  533W        W 1730   6.366   5.294   7.332
  534W        W 1731   7.428   2.408   7.215
  535W        W 1732   4.758   5.442   5.259
  536W        W 1733   7.754   2.007   2.780
  537W        W 1734   0.088   4.284   1.938
  538W        W 1735   0.734   4.424   5.777
  539W        W 1736   2.558   1.987   2.402
  540W        W 1737   5.670   0.631   0.538
  541W        W 1738   7.855   2.721   7.290
  542W        W 1739   5.053   3.382   1.519
  543W        W 1740   2.829   6.890   4.631
  544W        W 1741   1.971   2.811   5.716
  545W        W 1742   2.222   0.670   4.533
  546W        W 1743   4.453   0.801   2.766
  547W        W 1744   4.099   2.607   0.591
  548W        W 1745   5.388   5.603   6.467
  549W        W 1746   0.765   0.812   4.445
  550W        W 1747   4.589   5.840   4.988
  551W        W 1748   2.683   0.753   5.671
  552W        W 1749   7.903   5.537   6.198
  553W        W 1750   4.058   7.539   0.492
  554W        W 1751   0.249   6.358   4.617
  555W        W 1752   2.269   0.583   5.976
  556W        W 1753   2.290   6.656   5.038
  557W        W 1754   7.145   0.932   1.308
  558W        W 1755   1.987   3.150   2.911
  559W        W 1756   4.241   1.251   5.806
  560W        W 1757   4.816   5.236   3.104
  561W        W 1758   7.208   2.915   1.337
  562W        W 1759   2.979   6.039   5.503
  563W        W 1760   2.012   4.446   5.098
  564W        W 1761   3.564   7.603   1.643
  565W        W 1762   4.343   3.770   6.900
  566W        W 1763   1.195   7.434   4.553
  567W        W 1764   3.576   4.841   6.078
  568W        W 1765   5.515   1.327   1.228
  569W        W 1766   3.037   1.031   6.446
  570W        W 1767   6.082   4.167   4.773
  571W        W 1768   3.451   3.393   6.206
  572W        W 1769   5.231   1.042   6.165
  573W        W 1770   5.019   6.735   1.411
  574W        W 1771   2.656   3.080   3.932
  575W        W 1772   1.545   2.528   4.700
  576W        W 1773   5.236   6.833   6.253
  577W        W 1774   6.755   1.279   7.308
  578W        W 1775   2.939   4.733   6.687
  579W        W 1776   4.604   3.321   4.928
  580W        W 1777   7.458   6.816   4.391
  581W        W 1778   5.150   1.767   1.445
  582W        W 1779   6.042   3.175   6.256
  583W        W 1780   6.442   4.447   4.466
  584W        W 1781   2.546   7.294   6.295
  585W        W 1782   7.533   1.355   1.302
  586W        W 1783   5.172   4.740   1.264
  587W        W 1784   0.253   6.970   6.197
  588W        W 1785   0.475   1.927   5.883
  589W        W 1786   7.073   3.989   2.751
  590W        W 1787   2.561   0.862   6.661
  591W        W 1788   4.970   0.222   1.836
  592W        W 1789   3.266   2.615   7.054
  593W        W 1790   4.160   0.251   5.554
  594W        W 1791   5.540   0.772   7.619
  595W        W 1792   4.727   4.953   4.669
  596W        W 1793   1.898   7.208   5.550
  597W        W 1794   3.797   3.869   6.820
  598W        W 1795   1.733   5.025   1.316
  599W        W 1796   5.844   6.364   4.030
  600W        W 1797   2.135   1.592   3.233
  601W        W 1798   6.357   0.812   7.912
  602W        W 1799   7.774   3.099   5.982
  603W        W 1800   4.672   4.617   7.651
  604W        W 1801   5.320   5.323   3.086
  605W        W 1802   3.110   3.710   4.460
  606W        W 1803   3.280   4.706   5.681
  607W        W 1804   7.888   2.414   6.502
  608W        W 1805   4.033   5.072   6.000
  609W        W 1806   7.014   0.522   3.772
  610W        W 1807   1.079   3.373   3.109
  611W        W 1808   3.990   2.112   4.375
  612W        W 1809   5.657   7.208   0.313
  613W        W 1810   5.613   3.020   7.179
  614W        W 1811   6.553   1.887   6.731
  615W        W 1812   4.656   5.079   4.106
  616W        W 1813   7.430   7.929   5.529
  617W        W 1814   3.698   0.211   6.335
  618W        W 1815   3.294   0.711   1.132
  619W        W 1816   3.071   2.495   4.745
  620W        W 1817   4.449   7.805   7.263
  621W        W 1818   5.557   5.050   4.950
  622W        W 1819   5.573   4.968   1.589
  623W        W 1820   4.065   5.504   2.840
  624W        W 1821   1.336   0.503   1.339
  625W        W 1822   3.717   6.057   4.824
  626W        W 1823   7.229   0.897   5.587
  627W        W 1824   0.731   7.364   4.796
  628W        W 1825   0.154   6.026   2.917
  629W        W 1826   2.062   3.812   0.098
  630W        W 1827   4.709   7.442   1.111
  631W        W 1828   3.564   6.565   3.948
  632W        W 1829   0.971   4.184   2.134
  633W        W 1830   6.940   4.145   1.550
  634W        W 1831   6.674   6.423   5.859
  635W        W 1832   5.408   1.449   6.452
  636W        W 1833   1.648   5.435   3.628
  637W        W 1834   1.796   3.269   1.486
  638W        W 1835   1.779   3.876   7.138
  639W        W 1836   1.477   3.464   5.790
  640W        W 1837   4.997   5.001   2.688
  641W        W 1838   4.556   2.678   2.509
  642W        W 1839   5.851   7.706   0.407
  643W        W 1840   1.455   2.667   0.469
  644W        W 1841   0.983   5.446   6.622
  645W        W 1842   4.657   7.098   2.496
  646W        W 1843   1.628   5.162   4.500
  647W        W 1844   3.085   4.804   6.199
  648W        W 1845   6.680   0.662   6.373
  649W        W 1846   4.451   6.620   4.919
  650W        W 1847   2.965   5.600   5.260
  651W        W 1848   3.219   2.686   2.968
  652W        W 1849   3.257   0.273   2.513
  653W        W 1850   6.344   1.257   2.420
  654W        W 1851   2.339   5.694   6.017
  655W        W 1852   5.017   1.185   2.058
  656W        W 1853   0.975   6.083   3.993
  657W        W 1854   4.125   4.724   2.223
  658W        W 1855   5.525   5.725   3.358
  659W        W 1856   3.252   2.871   5.042
  660W        W 1857   3.040   3.156   1.027
  661W        W 1858   3.399   5.341   5.243
  662W        W 1859   3.528   6.243   2.669
  663W        W 1860   7.334   2.687   4.868
  664W        W 1861   5.437   3.453   5.267
  665W        W 1862   4.155   0.748   5.700
  666W        W 1863   3.634   4.197   6.440
  667W        W 1864   4.357   3.172   2.283
  668W        W 1865   1.706   1.360   3.552
  669W        W 1866   7.087   3.956   4.836
  670W        W 1867   7.935   3.799   1.968
  671W        W 1868   4.388   2.411   5.261
  672W        W 1869   5.851   5.488   4.048
  673W        W 1870   2.947   3.786   6.762
  674W        W 1871   4.514   2.412   7.957
  675W        W 1872   3.734   1.050   2.296
  676W        W 1873   4.958   0.829   2.988
  677W        W 1874   6.561   4.195   3.439
  678W        W 1875   5.520   6.466   3.015
  679W        W 1876   1.178   5.909   0.213
  680W        W 1877   1.581   4.342   5.330
  681W        W 1878   7.034   3.015   2.675
  682W        W 1879   5.710   4.325   3.755
  683W        W 1880   6.746   5.973   1.220
  684W        W 1881   6.854   3.361   0.561
  685W        W 1882   7.387   0.568   3.408
  686W        W 1883   0.412   2.249   0.958
  687W        W 1884   7.019   2.952   3.193
  688W        W 1885   6.140   5.064   6.593
  689W        W 1886   0.033   5.250   1.834
  690W        W 1887   4.997   5.587   2.796
  691W        W 1888   4.715   1.905   2.337
  692W        W 1889   3.021   7.019   6.346
  693W        W 1890   1.031   1.644   2.513
  694W        W 1891   0.640   5.450   0.981
  695W        W 1892   0.962   3.553   0.927
  696W        W 1893   3.545   1.237   2.778
  697W        W 1894   1.351   3.597   2.148
  698W        W 1895   0.171   1.274   6.660
  699W        W 1896   7.195   7.163   4.682
  700W        W 1897   5.163   6.856   1.888
  701W        W 1898   4.246   7.386   2.430
  702W        W 1899   2.859   2.386   6.827
  703W        W 1900   5.810   5.778   4.462
  704W        W 1901   4.515   2.138   4.403
  705W        W 1902   0.681   0.783   0.565
  706W        W 1903   0.624   2.279   5.525
  707W        W 1904   0.576   2.291   2.567
  708W        W 1905   1.812   4.012   3.816
  709W        W 1906   3.326   7.103   1.745
  710W        W 1907   6.182   3.012   5.613
  711W        W 1908   4.096   4.175   7.103
  712W        W 1909   5.403   3.911   2.906
  713W        W 1910   5.797   7.359   3.938
  714W        W 1911   3.120   6.290   1.574
  715W        W 1912   4.183   3.815   7.460
  716W        W 1913   5.200   0.408   7.566
  717W        W 1914   2.742   6.284   3.825
  718W        W 1915   4.151   7.896   1.671
  719W        W 1916   5.308   2.713   3.263
  720W        W 1917   5.439   7.523   0.659
  721W        W 1918   4.660   2.142   7.518
  722W        W 1919   3.313   3.647   3.314
  723W        W 1920   3.442   6.005   6.951
  724W        W 1921   1.825   6.682   4.058
  725W        W 1922   1.679   1.470   3.053
  726W        W 1923   2.187   4.051   0.538
  727W        W 1924   2.851   2.539   6.309
  728W        W 1925   4.308   0.095   6.574
  729W        W 1926   7.079   2.614   4.364
  730W        W 1927   3.384   1.085   1.458
  731W        W 1928   2.589   1.990   0.709
  732W        W 1929   3.349   0.228   5.960
  733W        W 1930   5.719   1.581   4.443
  734W        W 1931   7.124   5.954   6.445
  735W        W 1932   1.839   3.739   2.041
  736W        W 1933   4.201   4.600   5.888
  737W        W 1934   4.991   1.218   4.468
  738W        W 1935   3.677   0.063   1.823
  739W        W 1936   3.371   0.350   3.001
  740W        W 1937   1.725   2.471   1.674
  741W        W 1938   5.684   4.543   7.908
  742W        W 1939   2.520   5.956   7.054
  743W        W 1940   3.530   4.472   2.174
  744W        W 1941   3.180   1.110   2.487
  745W        W 1942   4.584   1.013   1.830
  746W        W 1943   0.587   4.842   3.902
  747W        W 1944   6.313   2.386   6.766
  748W        W 1945   4.687   7.322   7.406
  749W        W 1946   1.656   6.905   6.729
  750W        W 1947   2.451   6.006   3.342
  751W        W 1948   5.666   1.771   1.423
  752W        W 1949   3.925   5.993   2.916
  753W        W 1950   4.052   0.582   2.477
  754W        W 1951   0.125   0.064   6.111
  755W        W 1952   5.692   3.870   7.340
  756W        W 1953   4.672   0.972   5.841
  757W        W 1954   1.654   6.909   6.223
  758W        W 1955   6.241   5.975   6.707
  759W        W 1956   4.133   2.732   1.179
  760W        W 1957   4.544   4.666   1.921
  761W        W 1958   4.343   4.255   2.201
  762W        W 1959   7.709   6.565   5.444
  763W        W 1960   6.346   0.703   0.937
  764W        W 1961   6.159   7.906   6.332
  765W        W 1962   3.552   2.091   4.895
  766W        W 1963   5.126   0.283   6.995
  767W        W 1964   6.949   2.040   4.347
  768W        W 1965   1.444   2.429   0.938
  769W        W 1966   6.446   7.040   6.376
  770W        W 1967   3.429   6.867   2.192
  771W        W 1968   0.840   6.277   0.303
  772W        W 1969   1.577   2.524   3.415
  773W        W 1970   6.464   2.863   5.200
  774W        W 1971   6.928   5.552   1.701
  775W        W 1972   6.103   2.062   5.619
  776W        W 1973   6.477   6.733   5.049
  777W        W 1974   1.821   5.695   6.555
  778W        W 1975   3.882   6.817   6.996
  779W        W 1976   6.790   6.755   5.456
  780W        W 1977   3.732   5.342   2.349
  781W        W 1978   2.493   1.732   2.857
  782W        W 1979   2.831   6.868   5.553
  783W        W 1980   1.536   3.785   3.413
  784W        W 1981   3.644   6.803   1.471
  785W        W 1982   5.876   3.760   2.117
  786W        W 1983   3.836   6.475   3.008
  787W        W 1984   5.536   4.283   3.275
  788W        W 1985   6.389   6.159   1.540
  789W        W 1986   3.461   6.436   5.038
  790W        W 1987   5.196   3.833   1.337
  791W        W 1988   4.098   1.347   2.088
  792W        W 1989   3.770   2.700   7.145
  793W        W 1990   6.574   3.796   6.661
  794W        W 1991   3.500   1.387   0.611
  795W        W 1992   4.887   1.831   0.938
  796W        W 1993   5.753   1.953   4.786
  797W        W 1994   3.940   1.599   0.756
  798W        W 1995   6.808   3.539   2.623
  799W        W 1996   2.128   5.277   5.758
  800W        W 1997   5.420   4.302   1.538
  801W        W 1998   0.203   2.551   5.391
  802W        W 1999   5.626   3.872   5.633
  803W        W 2000   4.954   6.582   4.996
  804W        W 2001   1.216   3.380   3.598
  805W        W 2002   3.708   0.490   7.274
  806W        W 2003   0.958   2.918   3.748
  807W        W 2004   3.485   1.047   5.162
  808W        W 2005   4.756   6.702   3.222
  809W        W 2006   2.582   6.156   6.155
  810W        W 2007   3.495   7.762   6.172
  811W        W 2008   6.974   0.061   5.715
  812W        W 2009   5.504   6.213   6.302
  813W        W 2010   6.597   2.414   4.447
  814W        W 2011   1.771   2.208   3.750
  815W        W 2012   6.098   3.048   0.999
  816W        W 2013   6.610   1.931   1.488
  817W        W 2014   4.758   7.581   6.413
  818W        W 2015   5.831   6.811   1.314
  819W        W 2016   1.045   2.799   1.966
  820W        W 2017   5.335   2.038   1.049
  821W        W 2018   6.396   2.590   0.412
  822W        W 2019   3.766   1.011   0.380
  823W        W 2020   1.487   0.867   0.983
  824W        W 2021   7.986   2.781   2.973
  825W        W 2022   6.968   2.925   2.154
  826W        W 2023   7.268   3.474   4.890
  827W        W 2024   3.963   3.070   6.853
  828W        W 2025   1.534   0.426   3.150
  829W        W 2026   1.027   0.372   5.862
  830W        W 2027   1.752   1.433   6.560
  831W        W 2028   2.136   1.199   3.784
  832W        W 2029   3.121   3.647   0.848
  833W        W 2030   0.726   2.878   3.255
  834W        W 2031   5.487   0.598   6.762
  835W        W 2032   6.447   3.596   2.236
  836W        W 2033   4.782   4.364   0.084
  837W        W 2034   0.372   5.655   6.389
  838W        W 2035   3.927   7.854   0.867
  839W        W 2036   1.102   3.455   6.157
  840W        W 2037   2.436   7.761   0.981
  841W        W 2038   0.991   0.866   5.738
  842W        W 2039   6.878   6.301   2.633
  843W        W 2040   5.380   5.015   6.354
  844W        W 2041   1.249   0.001   1.966
  845W        W 2042   4.587   0.467   5.748
  846W        W 2043   5.043   5.069   5.055
  847W        W 2044   5.634   2.811   1.093
  848W        W 2045   5.539   2.741   0.351
  849W        W 2046   4.323   1.638   5.458
  850W        W 2047   6.660   0.637   1.352
  851W        W 2048   7.151   0.882   2.352
  852W        W 2049   3.249   6.805   4.301
  853W        W 2050   2.888   7.269   6.756
  854W        W 2051   1.121   0.558   0.366
  855W        W 2052   0.428   3.117   6.609
  856W        W 2053   3.493   3.499   5.702
  857W        W 2054   4.509   5.409   4.715
  858W        W 2055   5.457   4.180   1.043
  859W        W 2056   3.238   5.369   4.528
  860W        W 2057   6.977   6.708   6.172
  861W        W 2058   4.474   2.477   3.509
  862W        W 2059   3.163   6.300   4.128
  863W        W 2060   0.642   0.197   5.043
  864W        W 2061   3.605   2.798   1.269
  865W        W 2062   2.013   1.174   5.424
  866W        W 2063   3.961   2.436   3.526
  867W        W 2064   4.950   3.088   1.105
  868W        W 2065   6.280   3.284   7.963
  869W        W 2066   7.856   6.769   5.895
  870W        W 2067   3.075   6.729   3.832
  871W        W 2068   6.409   1.636   0.057
  872W        W 2069   1.352   5.685   6.278
  873W        W 2070   0.294   7.257   2.546
  874W        W 2071   2.034   3.657   2.905
  875W        W 2072   6.303   6.967   5.491
  876W        W 2073   5.131   4.703   6.695
  877W        W 2074   3.971   5.963   6.887
  878W        W 2075   4.277   5.617   1.770
  879W        W 2076   0.737   5.755   5.695
  880W        W 2077   6.772   5.983   3.023
  881W        W 2078   5.707   4.337   5.867
  882W        W 2079   6.508   1.448   1.381
  883W        W 2080   0.501   3.710   5.886
  884W        W 2081   3.983   3.500   7.125
  885W        W 2082   6.512   0.080   7.063
  886W        W 2083   5.226   6.857   4.667
  887W        W 2084   4.408   2.591   7.487
  888W        W 2085   4.080   4.714   2.838
  889W        W 2086   2.802   5.261   0.742
  890W        W 2087   3.355   3.120   3.219
  891W        W 2088   3.655   0.417   2.203
  892W        W 2089   6.694   1.574   4.473
  893W        W 2090   2.779   2.049   3.677
  894W        W 2091   5.835   6.073   3.110
  895W        W 2092   4.778   5.866   1.240
  896W        W 2093   6.727   3.303   4.166
  897W        W 2094   0.331   3.618   2.285
  898W        W 2095   5.473   2.041   4.338
  899W        W 2096   6.475   6.129   3.790
  900W        W 2097   5.632   1.191   5.438
  901W        W 2098   7.411   5.225   6.838
  902W        W 2099   6.112   2.614   1.278
  903W        W 2100   6.979   4.921   6.817
  904W        W 2101   1.214   7.939   1.465
  905W        W 2102   1.718   5.361   5.466
  906W        W 2103   6.727   3.692   1.307
  907W        W 2104   2.595   2.448   3.448
  908W        W 2105   0.933   2.087   3.130
  909W        W 2106   2.879   4.714   5.299
  910W        W 2107   0.702   3.135   1.107
  911W        W 2108   4.430   0.324   0.967
  912W        W 2109   3.876   1.323   4.965
  913W        W 2110   4.860   5.610   7.094
  914W        W 2111   5.242   7.494   1.162
  915W        W 2112   3.251   1.942   3.280
  916W        W 2113   6.916   4.952   1.100
  917W        W 2114   6.354   5.562   2.402
  918W        W 2115   3.005   2.845   6.690
  919W        W 2116   5.191   2.906   0.712
  920W        W 2117   6.767   1.692   3.965
  921W        W 2118   5.864   0.943   1.103
  922W        W 2119   3.636   2.529   2.692
  923W        W 2120   1.433   0.015   4.768
  924W        W 2121   2.826   4.950   3.868
  925W        W 2122   6.340   6.349   4.245
  926W        W 2123   2.548   3.065   0.964
  927W        W 2124   3.030   3.893   2.953
  928W        W 2125   6.795   1.389   5.454
  929W        W 2126   5.586   0.420   7.240
  930W        W 2127   4.348   7.052   5.838
  931W        W 2128   4.693   2.846   2.043
  932W        W 2129   4.166   4.235   3.563
  933W        W 2130   2.244   6.088   1.604
  934W        W 2131   0.609   5.539   1.855
  935W        W 2132   4.460   2.861   5.583
  936W        W 2133   6.469   3.428   0.944
  937W        W 2134   7.128   6.237   6.037
  938W        W 2135   7.696   6.945   1.773
  939W        W 2136   4.513   4.264   3.184
  940W        W 2137   4.119   3.012   7.359
  941W        W 2138   1.110   6.269   4.433
  942W        W 2139   6.238   6.624   3.828
  943W        W 2140   4.241   0.373   0.005
  944W        W 2141   3.485   4.842   5.246
  945W        W 2142   7.067   4.277   2.319
  946W        W 2143   2.450   1.142   2.411
  947W        W 2144   6.606   7.953   6.558
  948W        W 2145   6.107   3.634   6.516
  949W        W 2146   4.923   7.240   1.518
  950W        W 2147   4.848   7.107   7.865
  951W        W 2148   6.054   6.559   0.216
  952W        W 2149   1.186   6.145   0.680
  953W        W 2150   6.522   7.366   3.379
  954W        W 2151   1.172   4.577   3.300
  955W        W 2152   1.981   0.566   4.085
  956W        W 2153   5.017   5.922   4.479
  957W        W 2154   4.937   3.986   0.381
  958W        W 2155   5.483   1.883   1.870
  959W        W 2156   2.855   3.775   3.502
  960W        W 2157   4.023   0.079   7.227
  961W        W 2158   5.880   4.379   2.848
  962W        W 2159   5.419   5.488   3.787
  963W        W 2160   7.857   5.758   6.686
  964W        W 2161   4.657   4.213   0.754
  965W        W 2162   6.453   5.651   1.519
  966W        W 2163   0.247   0.998   0.867
  967W        W 2164   0.718   7.725   6.282
  968W        W 2165   6.688   1.029   5.082
  969W        W 2166   7.312   2.272   4.063
  970W        W 2167   4.108   5.937   5.910
  971W        W 2168   1.795   5.791   5.021
  972W        W 2169   4.615   4.454   3.659
  973W        W 2170   1.819   3.674   5.477
  974W        W 2171   1.912   2.842   4.598
  975W        W 2172   6.449   2.523   0.921
  976W        W 2173   2.128   4.687   6.887
  977W        W 2174   4.765   4.671   0.945
  978W        W 2175   3.538   2.657   7.971
  979W        W 2176   5.705   5.477   1.552
  980W        W 2177   7.771   3.276   1.560
  981W        W 2178   5.449   2.233   3.465
  982W        W 2179   2.233   3.122   6.470
  983W        W 2180   6.488   0.383   4.002
  984W        W 2181   7.138   3.140   0.212
  985W        W 2182   6.582   4.544   5.377
  986W        W 2183   1.956   7.038   2.765
  987W        W 2184   2.461   4.867   6.549
  988W        W 2185   2.871   4.055   4.766
  989W        W 2186   0.607   3.469   1.871
  990W        W 2187   3.435   4.943   2.074
  991W        W 2188   3.533   1.737   2.892
  992W        W 2189   4.114   7.729   2.850
  993W        W 2190   3.497   3.235   5.274
  994W        W 2191   5.136   6.346   6.656
  995W        W 2192   3.408   0.234   1.038
  996W        W 2193   4.982   3.456   4.594
  997W        W 2194   4.527   0.817   7.715
  998W        W 2195   4.965   0.686   2.040
  999W        W 2196   1.303   3.631   7.084
 1000W        W 2197   4.614   0.159   1.479
 1001W        W 2198   2.280   6.381   7.186
 1002W        W 2199   5.309   5.816   7.985
 1003W        W 2200   3.262   4.241   0.229
 1004W        W 2201   5.349   2.214   6.649
 1005W        W 2202   4.605   1.383   0.832
 1006W        W 2203   1.398   6.942   0.461
 1007W        W 2204   5.053   6.063   4.968
 1008W        W 2205   3.058   7.808   5.855
 1009W        W 2206   0.719   7.267   6.080
 1010W        W 2207   1.162   1.957   2.134
 1011W        W 2208   1.526   1.843   2.478
 1012W        W 2209   2.186   2.953   6.961
 1013W        W 2210   5.963   1.572   2.380
 1014W        W 2211   5.203   2.031   0.553
 1015W        W 2212   3.078   4.626   1.865
 1016W        W 2213   2.434   0.240   2.254
 1017W        W 2214   6.166   7.436   5.311
 1018W        W 2215   4.885   4.429   2.654
 1019W        W 2216   0.999   3.791   3.408
 1020W        W 2217   5.225   6.798   6.916
 1021W        W 2218   7.220   2.491   3.308
 1022W        W 2219   2.057   2.515   6.673
 1023W        W 2220   0.504   3.994   5.019
 1024W        W 2221   6.238   3.796   3.404
 1025W        W 2222   0.800   1.396   5.303
 1026W        W 2223   0.694   4.494   3.528
 1027W        W 2224   4.041   1.750   7.073
 1028W        W 2225   0.945   3.801   2.867
 1029W        W 2226   5.195   6.336   5.376
 1030W        W 2227   2.003   4.204   4.623
 1031W        W 2228   1.189   1.294   5.870
 1032W        W 2229   5.420   4.749   3.577
 1033W        W 2230   1.289   4.862   0.926
 1034W        W 2231   4.741   1.071   4.918
 1035W        W 2232   5.034   2.104   1.840
 1036W        W 2233   6.557   3.617   1.760
 1037W        W 2234   0.497   0.530   0.972
 1038W        W 2235   4.922   2.340   0.868
 1039W        W 2236   7.583   0.974   0.947
 1040W        W 2237   1.139   3.280   1.809
 1041W        W 2238   1.521   5.053   1.803
 1042W        W 2239   0.828   5.318   1.456
 1043W        W 2240   2.656   5.215   5.113
 1044W        W 2241   3.509   7.909   2.268
 1045W        W 2242   6.334   0.792   4.302
 1046W        W 2243   5.957   1.945   4.199
 1047W        W 2244   1.298   2.996   6.326
 1048W        W 2245   2.557   3.682   0.100
 1049W        W 2246   5.982   2.086   2.578
 1050W        W 2247   0.909   3.721   5.174
 1051W        W 2248   5.831   1.831   0.956
 1052W        W 2249   4.178   1.326   1.112
 1053W        W 2250   7.203   0.659   6.422
 1054W        W 2251   2.375   1.128   5.807
 1055W        W 2252   7.275   1.093   3.432
 1056W        W 2253   4.753   5.746   2.357
 1057W        W 2254   0.446   7.324   6.519
 1058W        W 2255   1.024   6.757   0.124
 1059W        W 2256   6.760   3.700   5.621
 1060W        W 2257   0.769   1.645   3.307
 1061W        W 2258   6.271   4.780   7.392
 1062W        W 2259   1.364   2.316   3.022
 1063W        W 2260   3.323   5.276   0.618
 1064W        W 2261   1.077   5.789   3.197
 1065W        W 2262   5.813   4.596   4.972
 1066W        W 2263   6.698   7.412   3.908
 1067W        W 2264   3.897   0.713   5.243
 1068W        W 2265   3.275   1.205   7.113
 1069W        W 2266   5.894   3.444   7.161
 1070W        W 2267   4.735   3.426   3.103
 1071W        W 2268   7.950   7.438   6.445
 1072W        W 2269   1.912   0.601   1.103
 1073W        W 2270   0.628   6.045   1.796
 1074W        W 2271   5.819   2.916   4.438
 1075W        W 2272   3.818   0.103   2.606
 1076W        W 2273   3.407   3.034   2.011
 1077W        W 2274   6.115   4.536   4.053
 1078W        W 2275   4.105   4.821   0.797
 1079W        W 2276   3.929   6.277   3.659
 1080W        W 2277   0.469   1.604   1.768
 1081W        W 2278   5.481   1.330   2.258
 1082W        W 2279   6.385   2.645   7.465
 1083W        W 2280   3.205   6.414   2.308
 1084W        W 2281   4.375   5.419   0.403
 1085W        W 2282   6.329   2.120   0.204
 1086W        W 2283   7.008   7.578   4.417
 1087W        W 2284   6.841   1.860   6.280
 1088W        W 2285   3.895   7.126   4.742
 1089W        W 2286   4.696   6.251   4.694
 1090W        W 2287   7.495   1.592   1.772
 1091W        W 2288   2.794   3.067   6.294
 1092W        W 2289   3.904   1.978   5.752
 1093W        W 2290   4.302   2.739   6.987
 1094W        W 2291   3.025   6.700   1.892
 1095W        W 2292   7.976   4.858   5.718
 1096W        W 2293   7.235   4.088   0.720
 1097W        W 2294   6.247   1.491   4.240
 1098W        W 2295   3.378   5.428   1.974
 1099W        W 2296   3.658   2.601   2.165
 1100W        W 2297   5.021   1.606   5.479
 1101W        W 2298   2.807   2.960   4.806
 1102W        W 2299   3.445   4.653   6.534
 1103W        W 2300   2.288   2.162   3.802
 1104W        W 2301   5.419   2.578   7.345
 1105W        W 2302   3.782   5.625   3.238
 1106W        W 2303   5.414   5.368   6.009
 1107W        W 2304   6.766   6.336   5.155
 1108W        W 2305   5.855   1.971   0.078
 1109W        W 2306   0.434   6.681   4.261
 1110W        W 2307   7.129   3.074   4.609
 1111W        W 2308   4.695   4.593   5.753
 1112W        W 2309   5.328   0.835   3.372
 1113W        W 2310   1.752   6.861   1.520
 1114W        W 2311   4.224   5.005   6.497
 1115W        W 2312   6.585   2.272   5.503
 1116W        W 2313   4.106   3.299   3.879
 1117W        W 2314   1.811   5.298   4.954
 1118W        W 2315   5.660   4.093   2.476
 1119W        W 2316   3.830   7.466   5.908
 1120W        W 2317   3.447   4.514   3.734
 1121W        W 2318   1.317   6.201   6.429
 1122W        W 2319   0.991   5.593   4.003
 1123W        W 2320   6.086   4.709   5.781
 1124W        W 2321   4.155   7.163   4.216
 1125W        W 2322   4.450   1.650   3.309
 1126W        W 2323   6.709   2.814   4.725
 1127W        W 2324   7.346   2.011   3.130
 1128W        W 2325   4.615   3.729   5.698
 1129W        W 2326   3.099   3.231   5.880
 1130W        W 2327   2.516   1.111   4.466
 1131W        W 2328   5.578   4.307   5.346
 1132W        W 2329   3.118   6.436   4.621
 1133W        W 2330   1.103   4.168   4.986
 1134W        W 2331   0.549   1.437   5.740
 1135W        W 2332   1.691   2.789   1.274
 1136W        W 2333   3.669   3.051   2.809
 1137W        W 2334   6.912   3.201   5.549
 1138W        W 2335   0.827   6.246   3.299
 1139W        W 2336   3.833   6.253   5.590
 1140W        W 2337   5.899   5.273   7.562
 1141W        W 2338   1.576   1.670   4.836
 1142W        W 2339   4.363   2.342   0.935
 1143W        W 2340   1.616   0.785   4.381
 1144W        W 2341   6.769   5.473   1.109
 1145W        W 2342   3.645   0.185   0.594
 1146W        W 2343   5.350   2.273   4.791
 1147W        W 2344   5.628   7.158   6.099
 1148W        W 2345   4.423   2.008   5.787
 1149W        W 2346   0.032   7.176   2.108
 1150W        W 2347   1.034   5.976   2.484
 1151W        W 2348   1.985   6.958   7.144
 1152W        W 2349   1.361   6.350   7.358
 1153W        W 2350   1.355   4.601   6.736
 1154W        W 2351   6.158   5.228   1.589
 1155W        W 2352   6.865   5.312   7.149
 1156W        W 2353   4.155   3.893   2.515
 1157W        W 2354   6.573   4.642   5.913
 1158W        W 2355   7.346   6.135   2.365
 1159W        W 2356   4.554   4.189   5.013
 1160W        W 2357   6.329   2.955   6.624
 1161W        W 2358   2.896   6.408   1.131
 1162W        W 2359   5.781   5.803   7.762
 1163W        W 2360   1.394   2.941   0.897
 1164W        W 2361   6.101   2.599   6.361
 1165W        W 2362   1.642   7.176   1.136
 1166W        W 2363   2.612   6.823   1.281
 1167W        W 2364   4.141   6.774   1.607
 1168W        W 2365   3.714   4.934   3.805
 1169W        W 2366   6.040   5.514   1.995
 1170W        W 2367   1.623   2.320   2.592
 1171W        W 2368   2.464   6.380   2.515
 1172W        W 2369   2.566   7.520   1.422
 1173W        W 2370   6.307   3.051   4.360
 1174W        W 2371   2.626   3.654   1.609
 1175W        W 2372   7.501   0.477   2.904
 1176W        W 2373   1.114   7.594   5.490
 1177W        W 2374   5.979   5.517   6.772
 1178W        W 2375   2.251   3.782   7.326
 1179W        W 2376   2.825   4.538   5.790
 1180W        W 2377   5.039   3.436   3.512
 1181W        W 2378   4.301   4.519   5.362
 1182W        W 2379   5.284   5.808   2.456
 1183W        W 2380   4.364   3.832   2.971
 1184W        W 2381   1.643   6.224   2.792
 1185W        W 2382   2.674   3.982   0.764
 1186W        W 2383   6.563   0.845   7.456
 1187W        W 2384   3.238   0.701   2.217
 1188W        W 2385   3.929   5.943   4.360
 1189W        W 2386   4.495   1.991   7.047
 1190W        W 2387   3.698   2.707   3.178
 1191W        W 2388   0.298   6.447   1.112
 1192W        W 2389   0.859   4.967   3.484
 1193W        W 2390   4.347   2.199   2.030
 1194W        W 2391   4.319   5.097   1.699
 1195W        W 2392   5.385   2.241   1.507
 1196W        W 2393   3.297   2.424   6.559
 1197W        W 2394   1.928   6.836   4.558
 1198W        W 2395   5.918   1.093   2.122
 1199W        W 2396   0.470   5.546   4.910
 1200W        W 2397   6.379   3.305   3.381
 1201W        W 2398   6.089   4.836   2.747
 1202W        W 2399   5.657   0.282   7.742
 1203W        W 2400   4.727   1.663   6.725
 1204W        W 2401   1.266   0.767   2.791
 1205W        W 2402   1.855   3.619   7.606
 1206W        W 2403   4.880   6.416   1.788
 1207W        W 2404   6.275   6.172   0.491
 1208W        W 2405   2.267   4.643   4.588
 1209W        W 2406   5.873   2.497   3.559
 1210W        W 2407   3.173   3.104   7.108
 1211W        W 2408   0.172   0.119   2.404
 1212W        W 2409   3.641   4.304   5.699
 1213W        W 2410   6.591   4.166   5.730
 1214W        W 2411   6.847   0.603   7.807
 1215W        W 2412   3.235   2.428   2.383
 1216W        W 2413   1.511   2.543   6.482
 1217W        W 2414   0.145   6.407   2.545
 1218W        W 2415   6.806   3.950   2.032
 1219W        W 2416   5.905   5.240   2.445
 1220W        W 2417   3.838   0.258   7.712
 1221W        W 2418   3.660   3.415   6.675
 1222W        W 2419   5.830   3.568   1.283
 1223W        W 2420   3.259   4.915   3.519
 1224W        W 2421   5.032   5.028   5.943
 1225W        W 2422   0.864   0.030   5.490
 1226W        W 2423   5.190   5.175   1.840
 1227W        W 2424   3.056   1.971   2.423
 1228W        W 2425   4.262   5.502   5.218
 1229W        W 2426   2.261   6.382   2.037
 1230W        W 2427   4.920   2.336   2.689
 1231W        W 2428   5.446   5.102   7.253
 1232W        W 2429   5.038   6.387   4.323
 1233W        W 2430   3.637   2.364   0.368
 1234W        W 2431   1.204   4.330   5.989
 1235W        W 2432   0.801   7.915   6.750
 1236W        W 2433   4.046   5.252   4.823
 1237W        W 2434   2.202   0.440   4.993
 1238W        W 2435   4.181   7.439   7.496
 1239W        W 2436   1.593   0.272   4.261
 1240W        W 2437   1.025   6.627   0.617
 1241W        W 2438   5.843   6.870   4.048
 1242W        W 2439   0.895   3.042   2.795
 1243W        W 2440   0.778   4.435   6.290
 1244W        W 2441   1.714   3.252   1.992
 1245W        W 2442   3.668   2.167   7.874
 1246W        W 2443   0.612   5.351   3.749
 1247W        W 2444   0.532   0.651   1.872
 1248W        W 2445   2.066   7.916   2.381
 1249W        W 2446   5.296   4.505   2.337
 1250W        W 2447   1.769   0.494   5.647
 1251W        W 2448   0.287   7.845   6.539
 1252W        W 2449   3.641   7.176   0.436
 1253W        W 2450   5.997   6.792   2.260
 1254W        W 2451   4.189   0.468   3.494
 1255W        W 2452   1.027   5.111   3.939
 1256W        W 2453   6.822   5.088   6.005
 1257W        W 2454   1.576   0.039   2.351
 1258W        W 2455   6.397   2.207   2.288
 1259W        W 2456   2.732   2.871   7.147
 1260W        W 2457   6.614   0.350   3.502
 1261W        W 2458   6.118   3.883   2.564
 1262W        W 2459   4.920   1.394   6.352
 1263W        W 2460   4.250   7.404   0.948
 1264W        W 2461   0.634   1.610   4.866
 1265W        W 2462   4.105   0.272   2.030
 1266W        W 2463   4.879   0.044   7.389
 1267W        W 2464   2.869   2.798   5.849
 1268W        W 2465   5.147   0.715   0.533
 1269W        W 2466   3.223   2.003   7.633
 1270W        W 2467   0.880   4.820   5.477
 1271W        W 2468   7.153   7.199   5.198
 1272W        W 2469   2.382   4.579   0.450
 1273W        W 2470   5.738   0.941   7.171
 1274W        W 2471   2.568   3.370   3.524
 1275W        W 2472   5.931   1.127   4.381
 1276W        W 2473   6.723   0.486   5.883
 1277W        W 2474   6.905   4.421   0.187
 1278W        W 2475   4.916   5.525   3.812
 1279W        W 2476   5.915   4.781   3.642
 1280W        W 2477   7.332   1.898   7.166
 1281W        W 2478   1.133   5.253   4.440
 1282W        W 2479   3.946   7.537   1.336
 1283W        W 2480   6.987   0.070   5.191
 1284W        W 2481   4.768   2.920   3.315
 1285W        W 2482   1.469   2.908   1.712
 1286W        W 2483   3.876   0.676   6.420
 1287W        W 2484   7.537   4.500   2.068
 1288W        W 2485   4.957   0.098   6.008
 1289W        W 2486   2.090   2.103   7.038
 1290W        W 2487   1.384   3.861   5.281
 1291W        W 2488   4.029   1.781   1.240
 1292W        W 2489   2.800   6.747   2.393
 1293W        W 2490   2.895   1.872   6.717
 1294W        W 2491   2.328   3.849   1.989
 1295W        W 2492   1.595   6.819   5.737
 1296W        W 2493   1.104   6.939   6.821
 1297W        W 2494   3.835   2.987   0.848
 1298W        W 2495   5.012   5.328   2.294
 1299W        W 2496   5.509   0.628   6.226
 1300W        W 2497   2.243   1.603   2.402
 1301W        W 2498   3.844   5.810   2.466
 1302W        W 2499   2.315   6.450   3.529
 1303W        W 2500   4.011   6.413   4.152
 1304W        W 2501   4.890   7.146   3.779
 1305W        W 2502   2.265   6.539   6.285
 1306W        W 2503   0.648   7.638   5.727
 1307W        W 2504   6.276   4.400   2.529
 1308W        W 2505   2.324   3.317   4.681
 1309W        W 2506   5.937   6.339   1.430
 1310W        W 2507   3.303   2.907   7.569
 1311W        W 2508   2.576   5.919   5.189
 1312W        W 2509   5.152   4.023   2.478
 1313W        W 2510   4.718   1.995   5.361
 1314W        W 2511   6.492   2.397   5.010
 1315W        W 2512   5.582   6.574   6.635
 1316W        W 2513   1.524   7.285   5.900
 1317W        W 2514   0.752   1.097   1.706
 1318W        W 2515   5.545   3.383   7.543
 1319W        W 2516   4.638   5.525   0.855
 1320W        W 2517   1.381   3.933   0.821
 1321W        W 2518   4.793   4.195   5.465
 1322W        W 2519   7.069   5.803   0.851
 1323W        W 2520   7.051   1.024   3.887
 1324W        W 2521   3.903   2.282   1.214
 1325W        W 2522   6.797   5.282   2.419
 1326W        W 2523   1.663   5.958   1.519
 1327W        W 2524   7.630   2.775   1.584
 1328W        W 2525   1.324   5.832   4.291
 1329W        W 2526   5.807   5.314   6.318
 1330W        W 2527   7.708   3.282   4.267
 1331W        W 2528   4.137   5.990   5.243
 1332W        W 2529   7.651   7.187   6.801
 1333W        W 2530   3.981   7.049   1.207
 1334W        W 2531   6.747   4.917   7.456
 1335W        W 2532   7.620   6.648   6.741
 1336W        W 2533   3.000   2.434   5.489
 1337W        W 2534   0.767   5.833   3.589
 1338W        W 2535   1.368   4.974   3.572
 1339W        W 2536   6.550   6.368   0.112
 1340W        W 2537   0.047   6.024   6.297
 1341W        W 2538   1.133   1.025   0.622
 1342W        W 2539   0.923   4.315   2.671
 1343W        W 2540   5.420   4.051   0.550
 1344W        W 2541   3.796   3.524   7.626
 1345W        W 2542   1.128   3.712   6.590
 1346W        W 2543   1.344   3.061   2.283
 1347W        W 2544   1.566   0.798   0.454
 1348W        W 2545   4.228   2.097   3.245
 1349W        W 2546   1.533   0.941   7.419
 1350W        W 2547   5.604   4.597   1.923
 1351W        W 2548   2.411   2.490   7.067
 1352W        W 2549   5.410   7.000   3.801
 1353W        W 2550   1.787   6.471   7.076
 1354W        W 2551   5.837   3.105   1.468
 1355W        W 2552   6.154   4.558   2.055
 1356W        W 2553   5.414   0.827   1.323
 1357W        W 2554   0.582   0.469   7.247
 1358W        W 2555   3.889   2.275   5.334
 1359W        W 2556   0.018   6.909   3.348
 1360W        W 2557   1.132   6.944   5.951
 1361W        W 2558   4.389   2.393   6.625
 1362W        W 2559   3.940   0.345   6.799
 1363W        W 2560   7.174   1.278   0.918
 1364W        W 2561   0.355   6.668   6.623
 1365W        W 2562   5.610   1.274   5.943
 1366W        W 2563   4.025   7.835   6.242
 1367W        W 2564   4.766   1.690   4.495
 1368W        W 2565   0.481   4.344   2.296
 1369W        W 2566   1.719   4.426   6.040
 1370W        W 2567   4.083   2.447   2.925
 1371W        W 2568   3.452   0.881   4.345
 1372W        W 2569   6.939   0.062   3.976
 1373W        W 2570   2.375   5.623   1.397
 1374W        W 2571   6.011   6.239   3.565
 1375W        W 2572   6.464   3.357   5.854
 1376W        W 2573   2.155   3.917   4.214
 1377W        W 2574   7.809   1.498   6.353
 1378W        W 2575   4.110   7.491   5.079
 1379W        W 2576   1.934   2.755   6.222
 1380W        W 2577   6.596   4.934   2.734
 1381W        W 2578   5.116   1.823   2.672
 1382W        W 2579   1.566   1.330   1.291
 1383W        W 2580   3.289   5.181   2.494
 1384W        W 2581   6.799   4.736   6.368
 1385W        W 2582   5.126   2.192   7.136
 1386W        W 2583   2.114   5.717   5.420
 1387W        W 2584   0.070   4.034   2.406
 1388W        W 2585   0.410   6.875   4.728
 1389W        W 2586   6.113   5.044   4.156
 1390W        W 2587   1.358   0.779   7.913
 1391W        W 2588   1.287   4.760   4.631
 1392W        W 2589   5.815   0.614   5.396
 1393W        W 2590   2.718   4.173   3.246
 1394W        W 2591   3.410   1.039   6.067
 1395W        W 2592   5.656   3.132   0.677
 1396W        W 2593   1.171   2.845   5.359
 1397W        W 2594   3.722   1.225   3.237
 1398W        W 2595   3.542   0.711   2.617
 1399W        W 2596   5.225   3.893   3.381
 1400W        W 2597   1.511   1.008   5.556
 1401W        W 2598   4.718   3.299   0.697
 1402W        W 2599   5.632   1.876   6.345
 1403W        W 2600   6.766   3.814   3.128
 1404W        W 2601   1.864   5.622   2.743
 1405W        W 2602   2.526   0.268   1.134
 1406W        W 2603   7.379   7.484   5.787
 1407W        W 2604   7.456   7.433   6.291
 1408W        W 2605   4.308   7.011   2.054
 1409W        W 2606   5.719   6.663   6.142
 1410W        W 2607   4.967   5.583   6.161
 1411W        W 2608   4.468   1.460   7.094
 1412W        W 2609   7.605   2.696   6.816
 1413W        W 2610   0.981   7.773   5.018
 1414W        W 2611   5.006   5.858   5.397
 1415W        W 2612   2.523   4.073   3.817
 1416W        W 2613   4.212   7.914   7.725
 1417W        W 2614   3.248   4.757   0.300
 1418W        W 2615   6.522   2.653   2.063
 1419W        W 2616   5.561   6.694   0.221
 1420W        W 2617   0.871   5.260   5.784
 1421W        W 2618   4.797   6.495   7.017
 1422W        W 2619   5.576   5.559   5.579
 1423W        W 2620   6.619   6.947   3.650
 1424W        W 2621   6.825   1.778   7.171
 1425W        W 2622   7.080   0.910   7.434
 1426W        W 2623   1.440   5.831   7.320
 1427W        W 2624   5.007   0.920   1.580
 1428W        W 2625   3.139   2.986   0.068
 1429W        W 2626   4.744   0.815   3.468
 1430W        W 2627   7.432   3.263   5.646
 1431W        W 2628   7.586   6.170   6.539
 1432W        W 2629   4.206   6.994   5.127
 1433W        W 2630   2.038   1.840   6.574
 1434W        W 2631   1.683   0.440   3.673
 1435W        W 2632   2.188   1.288   2.817
 1436W        W 2633   4.145   0.815   2.031
 1437W        W 2634   2.171   3.139   3.770
 1438W        W 2635   5.089   6.073   7.095
 1439W        W 2636   2.381   7.206   6.831
 1440W        W 2637   5.440   5.906   0.728
 1441W        W 2638   7.664   5.266   2.681
 1442W        W 2639   0.568   7.234   2.104
 1443W        W 2640   5.992   5.555   3.221
 1444W        W 2641   2.694   3.543   1.106
 1445W        W 2642   1.738   3.404   3.710
 1446W        W 2643   4.549   6.851   4.067
 1447W        W 2644   7.559   2.665   1.062
 1448W        W 2645   7.596   3.793   1.537
 1449W        W 2646   1.852   1.691   2.080
 1450W        W 2647   7.505   1.244   3.931
 1451W        W 2648   4.026   1.968   0.173
 1452W        W 2649   4.219   5.518   2.259
 1453W        W 2650   3.875   5.236   5.398
 1454W        W 2651   0.463   0.899   1.332
 1455W        W 2652   2.704   4.501   6.284
 1456W        W 2653   3.442   1.570   7.435
 1457W        W 2654   7.750   7.638   3.074
 1458W        W 2655   5.898   0.626   2.779
 1459W        W 2656   5.324   0.407   2.237
 1460W        W 2657   0.732   1.117   6.089
 1461W        W 2658   6.135   4.640   6.897
 1462W        W 2659   3.793   3.098   3.485
 1463W        W 2660   2.952   0.418   1.397
 1464W        W 2661   0.520   6.388   2.910
 1465W        W 2662   0.633   5.884   2.992
 1466W        W 2663   2.717   0.201   2.685
 1467W        W 2664   3.442   0.313   6.788
 1468W        W 2665   3.190   4.684   2.502
 1469W        W 2666   6.315   1.678   0.945
 1470W        W 2667   4.569   0.471   3.130
 1471W        W 2668   2.033   2.593   2.554
 1472W        W 2669   5.433   2.692   3.765
 1473W        W 2670   3.094   5.262   6.023
 1474W        W 2671   7.814   3.801   4.221
 1475W        W 2672   3.144   2.561   0.372
 1476W        W 2673   2.924   0.497   6.572
 1477W        W 2674   6.827   3.058   6.681
 1478W        W 2675   2.931   1.267   1.708
 1479W        W 2676   0.440   4.821   2.494
 1480W        W 2677   6.993   5.507   6.701
 1481W        W 2678   2.349   0.278   3.182
 1482W        W 2679   6.989   2.821   6.096
 1483W        W 2680   7.544   5.917   6.107
 1484W        W 2681   0.057   6.647   2.009
 1485W        W 2682   7.112   0.034   4.687
 1486W        W 2683   0.621   7.153   4.342
 1487W        W 2684   1.462   5.388   4.080
 1488W        W 2685   3.142   1.702   0.807
 1489W        W 2686   2.017   1.189   2.168
 1490W        W 2687   4.696   2.460   7.060
 1491W        W 2688   0.648   4.014   5.508
 1492W        W 2689   5.019   2.677   4.723
 1493W        W 2690   6.120   1.972   6.974
 1494W        W 2691   4.372   7.890   0.211
 1495W        W 2692   7.071   0.577   4.690
 1496W        W 2693   0.873   6.330   5.185
 1497W        W 2694   1.787   0.792   1.974
 1498W        W 2695   1.584   3.081   7.142
 1499W        W 2696   5.259   4.030   7.118
 1500W        W 2697   1.906   5.212   3.039
 1501W        W 2698   7.954   4.695   5.203
 1502W        W 2699   2.842   1.017   2.137
 1503W        W 2700   6.590   3.157   2.918
 1504W        W 2701   2.915   3.383   3.157
 1505W        W 2702   5.423   5.820   4.756
 1506W        W 2703   1.699   4.550   4.382
 1507W        W 2704   5.419   2.031   5.937
 1508W        W 2705   0.379   1.476   6.238
 1509W        W 2706   2.345   2.421   6.233
 1510W        W 2707   0.535   2.447   6.027
 1511W        W 2708   4.692   7.615   2.352
 1512W        W 2709   4.432   4.447   6.316
 1513W        W 2710   3.276   2.855   5.549
 1514W        W 2711   5.294   6.447   5.903
 1515W        W 2712   6.155   4.465   1.148
 1516W        W 2713   2.844   3.660   5.771
 1517W        W 2714   5.507   5.003   7.754
 1518W        W 2715   5.591   3.825   1.658
 1519W        W 2716   6.592   4.622   0.926
 1520W        W 2717   3.199   1.720   4.743
 1521W        W 2718   2.125   5.266   3.510
 1522W        W 2719   4.144   0.324   6.081
 1523W        W 2720   1.703   0.536   2.675
 1524W        W 2721   6.687   0.900   6.914
 1525W        W 2722   5.170   4.318   3.651
 1526W        W 2723   6.699   1.051   2.128
 1527W        W 2724   0.981   4.892   6.534
 1528W        W 2725   1.576   0.135   7.128
 1529W        W 2726   2.754   4.923   0.361
 1530W        W 2727   5.427   2.464   0.775
 1531W        W 2728   4.465   5.053   5.094
 1532W        W 2729   2.779   2.031   6.244
 1533W        W 2730   1.862   6.369   2.359
 1534W        W 2731   2.597   3.739   4.410
 1535W        W 2732   5.641   5.679   2.857
 1536W        W 2733   7.803   7.350   2.611
 1537W        W 2734   3.997   4.262   3.053
 1538W        W 2735   3.384   0.858   3.069
 1539W        W 2736   1.267   5.586   5.776
 1540W        W 2737   5.698   2.360   5.683
 1541W        W 2738   0.817   4.969   1.073
 1542W        W 2739   2.764   5.231   4.623
 1543W        W 2740   2.789   0.514   2.034
 1544W        W 2741   2.457   7.213   0.985
 1545W        W 2742   2.493   6.443   3.048
 1546W        W 2743   1.428   6.161   1.954
 1547W        W 2744   3.156   3.321   6.645
 1548W        W 2745   2.084   0.841   2.558
 1549W        W 2746   2.124   1.044   1.668
 1550W        W 2747   0.436   6.609   3.343
 1551W        W 2748   6.472   0.356   7.552
 1552W        W 2749   2.714   5.563   6.797
 1553W        W 2750   2.835   2.755   4.322
 1554W        W 2751   3.487   7.055   3.884
 1555W        W 2752   3.643   6.635   3.455
 1556W        W 2753   3.069   2.104   5.101
 1557W        W 2754   0.611   0.096   5.938
 1558W        W 2755   1.645   2.164   2.076
 1559W        W 2756   4.444   4.558   7.203
 1560W        W 2757   1.453   6.860   7.194
 1561W        W 2758   3.951   3.398   5.954
 1562W        W 2759   7.961   1.545   1.511
 1563W        W 2760   4.207   4.932   0.311
 1564W        W 2761   5.913   1.314   4.860
 1565W        W 2762   4.895   5.572   0.404
 1566W        W 2763   4.831   3.115   2.459
 1567W        W 2764   6.766   2.258   0.527
 1568W        W 2765   0.400   0.847   6.396
 1569W        W 2766   4.127   4.652   3.836
 1570W        W 2767   5.876   2.897   3.925
 1571W        W 2768   6.863   4.677   3.512
 1572W        W 2769   1.608   4.129   1.431
 1573W        W 2770   4.086   2.837   2.612
 1574W        W 2771   4.855   6.203   5.726
 1575W        W 2772   3.516   3.328   1.040
 1576W        W 2773   2.443   3.290   7.288
 1577W        W 2774   3.740   1.023   5.634
 1578W        W 2775   2.114   0.718   3.607
 1579W        W 2776   7.019   6.742   4.995
 1580W        W 2777   2.571   4.159   0.232
 1581W        W 2778   3.134   6.789   1.390
 1582W        W 2779   1.251   2.820   6.795
 1583W        W 2780   5.530   2.775   4.839
 1584W        W 2781   3.461   1.281   4.659
 1585W        W 2782   2.341   7.077   4.718
 1586W        W 2783   0.576   0.620   5.900
 1587W        W 2784   1.669   0.899   6.589
 1588W        W 2785   2.634   5.798   3.935
 1589W        W 2786   1.113   4.246   5.495
 1590W        W 2787   1.270   1.594   3.426
 1591W        W 2788   4.979   0.853   1.033
 1592W        W 2789   4.191   2.446   5.733
 1593W        W 2790   6.096   1.331   3.488
 1594W        W 2791   1.302   0.554   5.476
 1595W        W 2792   6.322   5.975   5.673
 1596W        W 2793   1.177   0.682   3.412
 1597W        W 2794   5.799   0.531   2.022
 1598W        W 2795   2.092   2.475   3.460
 1599W        W 2796   4.236   2.299   3.950
 1600W        W 2797   2.611   1.555   5.941
 1601W        W 2798   4.582   0.977   7.202
 1602W        W 2799   0.796   0.419   6.760
 1603W        W 2800   3.217   4.863   4.494
 1604W        W 2801   5.455   6.096   4.262
 1605W        W 2802   5.780   5.199   2.938
 1606W        W 2803   3.495   5.548   4.120
 1607W        W 2804   1.236   1.708   1.269
 1608W        W 2805   2.486   1.673   6.446
 1609W        W 2806   6.244   4.339   0.677
 1610W        W 2807   3.449   3.900   6.011
 1611W        W 2808   7.698   2.388   3.112
 1612W        W 2809   2.026   5.161   6.693
 1613W        W 2810   3.411   2.934   0.575
 1614W        W 2811   7.586   4.993   1.944
 1615W        W 2812   4.490   5.340   7.325
 1616W        W 2813   2.926   3.056   2.760
 1617W        W 2814   1.916   7.014   5.069
 1618W        W 2815   1.713   5.832   3.937
 1619W        W 2816   6.276   7.131   3.984
 1620W        W 2817   0.925   2.721   0.883
 1621W        W 2818   4.525   4.940   6.094
 1622W        W 2819   6.668   2.795   4.100
 1623W        W 2820   6.760   4.438   2.714
 1624W        W 2821   7.884   1.409   0.931
 1625W        W 2822   2.444   2.149   6.653
 1626W        W 2823   0.529   3.959   2.636
 1627W        W 2824   4.309   0.215   2.757
 1628W        W 2825   4.444   7.816   0.711
 1629W        W 2826   5.503   6.385   7.109
 1630W        W 2827   4.673   4.723   3.015
 1631W        W 2828   1.903   6.377   1.343
 1632W        W 2829   3.000   5.164   5.531
 1633W        W 2830   2.174   3.398   1.816
 1634W        W 2831   6.008   0.749   6.265
 1635W        W 2832   7.376   7.014   6.017
 1636W        W 2833   0.725   1.108   4.875
 1637W        W 2834   4.026   6.298   2.507
 1638W        W 2835   4.030   2.340   2.428
 1639W        W 2836   0.771   0.029   1.692
 1640W        W 2837   4.906   4.633   6.234
 1641W        W 2838   4.883   2.183   1.346
 1642W        W 2839   2.306   3.400   4.186
 1643W        W 2840   1.044   0.228   7.169
 1644W        W 2841   1.902   7.359   6.828
 1645W        W 2842   3.113   3.775   5.139
 1646W        W 2843   4.543   7.995   1.978
 1647W        W 2844   0.755   6.514   4.694
 1648W        W 2845   6.414   1.965   7.663
 1649W        W 2846   5.735   7.553   2.015
 1650W        W 2847   4.051   6.988   0.701
 1651W        W 2848   2.329   4.576   5.928
 1652W        W 2849   3.982   4.191   6.080
 1653W        W 2850   4.377   2.118   1.389
 1654W        W 2851   2.953   1.681   3.988
 1655W        W 2852   1.761   0.446   4.725
 1656W        W 2853   1.447   4.101   1.941
 1657W        W 2854   1.512   2.961   5.879
 1658W        W 2855   1.388   0.522   2.265
 1659W        W 2856   0.826   5.810   5.213
 1660W        W 2857   0.642   0.126   2.170
 1661W        W 2858   2.287   4.839   3.820
 1662W        W 2859   6.735   2.997   3.625
 1663W        W 2860   5.204   3.413   0.678
 1664W        W 2861   4.248   6.000   3.968
 1665W        W 2862   5.027   3.865   0.855
 1666W        W 2863   3.349   1.556   1.637
 1667W        W 2864   2.176   5.951   4.132
 1668W        W 2865   3.837   2.888   1.741
 1669W        W 2866   6.353   1.622   7.267
 1670W        W 2867   3.422   6.874   4.783
 1671W        W 2868   4.311   4.451   1.087
 1672W        W 2869   4.938   4.430   7.143
 1673W        W 2870   6.182   2.193   4.622
 1674W        W 2871   4.413   4.947   1.214
 1675W        W 2872   2.096   6.856   1.148
 1676W        W 2873   2.091   5.948   1.120
 1677W        W 2874   1.611   4.051   4.305
 1678W        W 2875   1.123   3.394   4.844
 1679W        W 2876   2.172   5.226   5.273
 1680W        W 2877   5.899   3.916   3.026
 1681W        W 2878   4.142   4.103   6.553
 1682W        W 2879   4.630   1.214   0.326
 1683W        W 2880   0.524   6.058   2.529
 1684W        W 2881   4.973   5.845   6.645
 1685W        W 2882   4.663   1.159   6.726
 1686W        W 2883   0.185   5.882   5.802
 1687W        W 2884   7.692   7.677   3.909
 1688W        W 2885   3.948   4.359   1.914
 1689W        W 2886   5.368   0.493   2.749
 1690W        W 2887   5.478   7.135   4.312
 1691W        W 2888   5.800   2.624   3.077
 1692W        W 2889   5.709   2.034   5.292
 1693W        W 2890   3.974   0.989   2.775
 1694W        W 2891   7.459   6.168   5.661
 1695W        W 2892   2.292   0.729   2.078
 1696W        W 2893   7.475   0.715   3.889
 1697W        W 2894   4.434   4.034   0.297
 1698W        W 2895   1.088   7.239   7.228
 1699W        W 2896   1.314   7.523   1.727
 1700W        W 2897   4.481   5.857   4.436
 1701W        W 2898   1.201   7.747   7.040
 1702W        W 2899   3.838   3.087   6.344
 1703W        W 2900   2.214   6.647   1.601
 1704W        W 2901   4.864   1.658   0.455
 1705W        W 2902   7.208   5.790   1.354
 1706W        W 2903   3.746   1.334   6.964
 1707W        W 2904   3.897   4.716   4.616
 1708W        W 2905   3.263   2.197   0.702
 1709W        W 2906   3.265   6.308   3.621
 1710W        W 2907   3.378   3.575   7.050
 1711W        W 2908   3.842   2.926   0.281
 1712W        W 2909   4.779   7.007   7.022
 1713W        W 2910   3.931   6.639   2.097
 1714W        W 2911   7.431   4.274   1.458
 1715W        W 2912   1.778   1.160   7.017
 1716W        W 2913   6.467   5.178   7.828
 1717W        W 2914   1.337   4.122   6.959
 1718W        W 2915   3.502   2.920   6.718
 1719W        W 2916   0.849   6.421   6.216
 1720W        W 2917   1.678   1.443   5.761
 1721W        W 2918   2.379   4.520   3.161
 1722W        W 2919   6.299   3.343   1.418
 1723W        W 2920   2.754   3.585   3.962
 1724W        W 2921   5.744   6.838   7.030
 1725W        W 2922   4.044   2.301   4.845
 1726W        W 2923   3.458   3.568   1.959
 1727W        W 2924   7.539   5.997   1.008
 1728W        W 2925   4.863   2.877   5.930
 1729W        W 2926   5.988   3.502   0.792
 1730W        W 2927   4.522   5.813   5.550
 1731W        W 2928   1.025   2.515   3.428
 1732W        W 2929   5.826   1.524   1.892
 1733W        W 2930   2.752   1.353   6.761
 1734W        W 2931   6.852   0.485   7.239
 1735W        W 2932   6.745   3.694   5.104
 1736W        W 2933   3.262   7.008   5.352
 1737W        W 2934   4.623   0.412   6.251
 1738W        W 2935   2.858   2.056   4.624
 1739W        W 2936   6.378   4.627   3.615
 1740W        W 2937   2.430   5.904   6.553
 1741W        W 2938   6.469   1.766   5.462
 1742W        W 2939   2.341   2.040   3.289
 1743W        W 2940   3.337   4.780   7.029
 1744W        W 2941   4.613   3.552   7.329
 1745W        W 2942   0.710   6.975   7.469
 1746W        W 2943   6.454   2.196   6.316
 1747W        W 2944   6.037   6.400   2.607
 1748W        W 2945   1.113   6.405   1.129
 1749W        W 2946   4.172   4.350   0.601
 1750W        W 2947   3.694   5.562   4.595
 1751W        W 2948   0.164   3.449   4.084
 1752W        W 2949   7.348   1.484   3.047
 1753W        W 2950   5.499   0.957   2.890
 1754W        W 2951   5.739   3.871   3.504
 1755W        W 2952   2.220   0.645   5.486
 1756W        W 2953   6.932   4.126   5.328
 1757W        W 2954   1.611   3.284   4.554
 1758W        W 2955   4.538   4.027   1.228
 1759W        W 2956   1.237   2.309   6.916
 1760W        W 2957   4.763   3.256   5.472
 1761W        W 2958   3.485   6.503   1.841
 1762W        W 2959   0.831   5.781   0.597
 1763W        W 2960   5.509   4.728   4.523
 1764W        W 2961   1.087   4.615   3.832
 1765W        W 2962   4.981   5.552   4.815
 1766W        W 2963   7.300   6.205   0.599
 1767W        W 2964   0.873   4.662   2.277
 1768W        W 2965   1.268   3.951   2.507
 1769W        W 2966   4.181   1.683   6.078
 1770W        W 2967   6.072   3.331   1.882
 1771W        W 2968   0.839   1.150   4.051
 1772W        W 2969   3.497   5.171   5.716
 1773W        W 2970   1.994   3.230   5.999
 1774W        W 2971   5.336   6.933   0.614
 1775W        W 2972   6.190   1.990   5.104
 1776W        W 2973   1.111   4.246   1.593
 1777W        W 2974   6.621   4.501   6.786
 1778W        W 2975   1.034   5.807   2.008
 1779W        W 2976   4.268   4.997   7.014
 1780W        W 2977   2.022   0.543   1.614
 1781W        W 2978   5.774   1.372   0.766
 1782W        W 2979   3.690   1.681   2.053
 1783W        W 2980   6.746   4.245   0.637
 1784W        W 2981   5.579   0.778   4.516
 1785W        W 2982   6.971   4.295   3.156
 1786W        W 2983   5.159   2.692   6.486
 1787W        W 2984   1.256   2.889   3.168
 1788W        W 2985   3.772   0.823   6.915
 1789W        W 2986   6.857   6.781   1.017
 1790W        W 2987   5.937   2.457   0.246
 1791W        W 2988   6.866   5.212   3.652
 1792W        W 2989   5.544   5.444   2.080
 1793W        W 2990   0.464   6.181   6.550
 1794W        W 2991   1.891   3.108   4.170
 1795W        W 2992   4.304   7.871   1.196
 1796W        W 2993   0.010   0.328   6.539
 1797W        W 2994   2.069   5.187   2.557
 1798W        W 2995   5.435   1.761   7.293
 1799W        W 2996   5.373   5.218   1.207
 1800W        W 2997   4.019   1.928   2.798
 1801W        W 2998   2.363   5.411   6.438
 1802W        W 2999   7.925   6.852   2.469
 1803W        W 3000   3.141   2.669   0.927
 1804W        W 3001   0.907   2.538   2.916
 1805W        W 3002   5.162   1.009   6.669
 1806W        W 3003   2.015   4.936   4.265
 1807W        W 3004   6.746   5.504   5.701
 1808W        W 3005   1.564   6.104   4.653
 1809W        W 3006   3.275   1.935   6.360
 1810W        W 3007   7.994   3.777   5.992
 1811W        W 3008   7.589   2.326   3.627
 1812W        W 3009   6.713   0.912   5.597
 1813W        W 3010   3.170   3.366   0.428
 1814W        W 3011   5.367   4.396   2.818
 1815W        W 3012   2.203   2.694   3.014
 1816W        W 3013   0.545   3.490   4.867
 1817W        W 3014   6.420   0.919   6.006
 1818W        W 3015   1.833   4.810   4.796
 1819W        W 3016   2.107   5.074   2.059
 1820W        W 3017   4.848   2.159   6.687
 1821W        W 3018   6.099   3.779   1.655
 1822W        W 3019   5.758   0.232   0.238
 1823W        W 3020   3.931   4.621   6.344
 1824W        W 3021   2.496   0.236   5.686
 1825W        W 3022   4.337   1.290   2.537
 1826W        W 3023   3.289   5.087   4.029
 1827W        W 3024   6.783   1.513   2.348
 1828W        W 3025   2.247   3.443   1.310
 1829W        W 3026   2.965   5.103   2.087
 1830W        W 3027   0.427   6.071   5.371
 1831W        W 3028   2.453   5.620   0.888
 1832W        W 3029   2.297   6.444   4.051
 1833W        W 3030   1.941   7.975   4.889
 1834W        W 3031   1.547   4.038   5.730
 1835W        W 3032   7.428   7.651   6.751
 1836W        W 3033   4.762   7.550   5.901
 1837W        W 3034   4.479   1.261   4.503
 1838W        W 3035   3.572   6.932   3.011
 1839W        W 3036   1.259   5.151   5.469
 1840W        W 3037   6.909   2.118   7.547
 1841W        W 3038   7.429   2.276   4.573
 1842W        W 3039   3.247   6.930   3.399
 1843W        W 3040   2.201   3.659   3.773
 1844W        W 3041   6.605   4.169   1.143
 1845W        W 3042   6.654   1.410   6.845
 1846W        W 3043   3.134   3.531   1.363
 1847W        W 3044   6.817   5.782   2.562
 1848W        W 3045   3.178   5.923   2.837
 1849W        W 3046   4.999   4.210   6.490
 1850W        W 3047   3.402   3.995   4.797
 1851W        W 3048   4.935   3.497   0.251
 1852W        W 3049   5.938   0.978   3.162
 1853W        W 3050   2.167   5.734   3.693
 1854W        W 3051   3.768   5.209   6.403
 1855W        W 3052   6.822   7.711   3.104
 1856W        W 3053   4.684   4.556   1.438
 1857W        W 3054   6.874   1.679   2.857
 1858W        W 3055   3.554   5.364   3.617
 1859W        W 3056   1.160   3.030   4.493
 1860W        W 3057   5.757   2.423   4.519
 1861W        W 3058   2.554   5.994   2.829
 1862W        W 3059   3.001   1.632   7.150
 1863W        W 3060   1.380   5.767   2.793
 1864W        W 3061   5.441   0.994   0.843
 1865W        W 3062   2.124   3.233   5.496
 1866W        W 3063   7.197   1.345   2.584
 1867W        W 3064   3.769   7.854   6.704
 1868W        W 3065   4.432   4.201   1.705
 1869W        W 3066   2.298   6.958   4.201
 1870W        W 3067   6.459   6.464   3.402
 1871W        W 3068   4.886   1.743   7.260
 1872W        W 3069   5.474   1.136   4.150
 1873W        W 3070   0.231   3.418   3.555
 1874W        W 3071   0.740   1.142   0.966
 1875W        W 3072   5.992   6.870   6.527
 1876W        W 3073   1.408   3.309   6.726
 1877W        W 3074   1.660   0.872   1.479
 1878W        W 3075   1.392   7.341   6.814
 1879W        W 3076   2.015   2.890   1.734
 1880W        W 3077   2.143   6.661   6.765
 1881W        W 3078   3.190   7.780   1.926
 1882W        W 3079   3.280   3.455   2.823
 1883W        W 3080   0.857   6.491   6.705
 1884W        W 3081   5.848   4.806   6.215
 1885W        W 3082   1.188   7.847   0.932
 1886W        W 3083   1.984   5.409   4.057
 1887W        W 3084   1.327   1.528   6.299
 1888W        W 3085   1.025   0.853   6.735
 1889W        W 3086   0.989   5.251   0.628
 1890W        W 3087   6.866   6.101   2.178
 1891W        W 3088   4.005   6.808   3.807
 1892W        W 3089   7.761   6.977   6.354
 1893W        W 3090   4.548   6.048   7.043
 1894W        W 3091   7.297   0.919   4.333
 1895W        W 3092   5.181   4.821   3.131
 1896W        W 3093   3.287   3.438   7.532
 1897W        W 3094   2.921   4.048   6.134
 1898W        W 3095   1.027   3.789   1.810
 1899W        W 3096   1.534   1.784   3.825
 1900W        W 3097   0.414   5.926   0.958
 1901W        W 3098   5.359   5.093   5.470
 1902W        W 3099   5.689   6.786   1.819
 1903W        W 3100   1.530   5.661   1.959
 1904W        W 3101   6.603   6.928   5.907
 1905W        W 3102   4.405   1.966   4.963
 1906W        W 3103   4.183   7.339   3.203
 1907W        W 3104   7.450   1.713   0.952
 1908W        W 3105   2.078   0.140   5.402
 1909W        W 3106   1.693   6.828   2.321
 1910W        W 3107   6.012   4.715   1.580
 1911W        W 3108   5.441   2.277   0.171
 1912W        W 3109   5.376   6.694   1.072
 1913W        W 3110   4.282   0.834   1.014
 1914W        W 3111   3.860   1.725   3.272
 1915W        W 3112   0.706   3.023   1.626
 1916W        W 3113   4.623   1.857   1.756
 1917W        W 3114   5.953   2.603   0.741
 1918W        W 3115   0.484   0.332   6.363
 1919W        W 3116   6.834   2.118   3.146
 1920W        W 3117   1.674   5.263   2.249
 1921W        W 3118   7.015   1.697   3.369
 1922W        W 3119   2.052   0.116   0.945
 1923W        W 3120   2.369   3.893   4.825
 1924W        W 3121   6.959   2.347   4.793
 1925W        W 3122   5.434   1.252   4.691
 1926W        W 3123   2.052   7.696   5.671
 1927W        W 3124   5.822   2.126   3.060
 1928W        W 3125   6.596   3.120   2.419
 1929W        W 3126   1.346   6.492   6.851
 1930W        W 3127   7.568   4.796   2.493
 1931W        W 3128   1.413   0.722   5.966
 1932W        W 3129   7.943   6.513   6.373
 1933W        W 3130   4.820   5.006   5.496
 1934W        W 3131   3.492   1.682   7.969
 1935W        W 3132   4.191   6.249   4.667
 1936W        W 3133   0.836   3.194   2.240
 1937W        W 3134   6.458   4.857   1.807
 1938W        W 3135   3.003   5.011   7.887
 1939W        W 3136   1.186   1.044   6.311
 1940W        W 3137   3.149   1.097   0.846
 1941W        W 3138   7.637   3.742   5.599
 1942W        W 3139   3.456   6.003   5.303
 1943W        W 3140   5.795   4.605   2.396
 1944W        W 3141   2.911   1.147   5.956
 1945W        W 3142   5.987   7.236   4.428
 1946W        W 3143   3.097   4.586   4.077
 1947W        W 3144   2.779   2.404   2.584
 1948W        W 3145   3.419   7.227   2.596
 1949W        W 3146   1.170   5.222   6.188
 1950W        W 3147   1.919   4.505   0.636
 1951W        W 3148   4.666   1.239   5.396
 1952W        W 3149   6.406   1.752   2.601
 1953W        W 3150   2.244   5.148   4.688
 1954W        W 3151   0.904   5.943   6.518
 1955W        W 3152   2.273   0.456   6.470
 1956W        W 3153   2.155   3.577   5.125
 1957W        W 3154   6.326   0.917   2.813
 1958W        W 3155   2.689   3.938   2.347
 1959W        W 3156   2.026   1.735   3.699
 1960W        W 3157   6.548   4.711   0.430
 1961W        W 3158   4.289   3.358   7.664
 1962W        W 3159   3.268   0.788   6.831
 1963W        W 3160   5.049   7.212   6.632
 1964W        W 3161   0.249   1.038   5.931
 1965W        W 3162   4.973   3.863   3.827
 1966W        W 3163   6.842   3.251   1.539
 1967W        W 3164   5.164   3.042   7.496
 1968W        W 3165   6.598   2.415   7.870
 1969W        W 3166   2.364   7.375   2.711
 1970W        W 3167   0.913   0.963   0.110
 1971W        W 3168   6.463   7.563   4.734
 1972W        W 3169   6.332   3.380   6.911
 1973W        W 3170   2.460   2.876   2.590
 1974W        W 3171   7.184   6.941   1.840
 1975W        W 3172   2.573   4.816   0.861
 1976W        W 3173   5.554   2.444   6.229
 1977W        W 3174   4.207   1.813   2.316
 1978W        W 3175   5.685   4.000   7.857
 1979W        W 3176   2.915   2.911   3.385
 1980W        W 3177   4.672   3.752   1.646
 1981W        W 3178   5.978   6.650   5.705
 1982W        W 3179   2.521   1.999   4.980
 1983W        W 3180   1.397   4.434   0.648
 1984W        W 3181   5.640   2.190   7.083
 1985W        W 3182   0.749   2.856   4.238
 1986W        W 3183   1.200   3.834   1.295
 1987W        W 3184   0.839   3.721   2.284
 1988W        W 3185   4.375   0.330   7.501
 1989W        W 3186   6.832   2.002   2.465
 1990W        W 3187   2.037   6.066   6.279
 1991W        W 3188   0.892   3.836   4.663
 1992W        W 3189   4.236   0.962   4.853
 1993W        W 3190   6.163   2.961   2.230
 1994W        W 3191   2.824   5.192   6.467
 1995W        W 3192   5.416   4.604   7.093
 1996W        W 3193   6.762   0.263   4.408
 1997W        W 3194   7.665   2.183   0.923
 1998W        W 3195   6.947   0.223   6.256
 1999W        W 3196   0.342   6.104   3.394
 2000W        W 3197   6.717   7.389   6.685
 2001W        W 3198   6.109   5.934   4.110
 2002W        W 3199   5.406   4.523   6.291
 2003W        W 3200   0.663   2.702   5.175
 2004W        W 3201   4.544   7.468   2.837
 2005W        W 3202   3.908   7.640   2.036
 2006W        W 3203   3.738   1.712   4.631
 2007W        W 3204   5.382   5.620   7.094
 2008W        W 3205   5.550   2.365   1.983
 2009W        W 3206   0.368   4.419   2.803
 2010W        W 3207   3.532   1.783   6.958
 2011W        W 3208   7.263   3.521   4.381
 2012W        W 3209   0.798   2.333   2.116
 2013W        W 3210   6.963   6.141   5.561
 2014W        W 3211   3.380   7.808   2.754
 2015W        W 3212   4.029   3.482   0.929
 2016W        W 3213   1.288   4.185   3.630
 2017W        W 3214   4.225   7.891   2.361
 2018W        W 3215   2.041   5.589   2.227
 2019W        W 3216   5.367   5.575   4.294
 2020W        W 3217   5.532   7.079   6.586
 2021W        W 3218   4.984   4.268   1.160
 2022W        W 3219   3.203   0.541   3.453
 2023W        W 3220   7.064   5.861   4.435
 2024W        W 3221   3.767   0.013   1.334
 2025W        W 3222   2.491   4.219   4.449
 2026W        W 3223   4.577   2.560   3.012
 2027W        W 3224   5.362   1.388   1.721
 2028W        W 3225   2.092   0.785   6.835
 2029W        W 3226   4.133   5.475   4.360
 2030W        W 3227   5.377   4.058   4.038
 2031W        W 3228   3.755   5.519   5.999
 2032W        W 3229   6.292   0.538   3.143
 2033W        W 3230   5.874   3.163   6.743
 2034W        W 3231   4.948   7.600   0.699
 2035W        W 3232   7.068   6.862   3.417
 2036W        W 3233   2.526   4.964   4.281
 2037W        W 3234   0.977   0.164   6.322
 2038W        W 3235   6.735   2.404   1.344
 2039W        W 3236   4.182   4.622   1.550
 2040W        W 3237   0.281   6.789   3.790
 2041W        W 3238   5.567   4.182   4.812
 2042W        W 3239   7.141   7.252   6.912
 2043W        W 3240   0.877   4.458   6.825
 2044W        W 3241   2.951   0.838   3.796
 2045W        W 3242   2.450   0.988   5.207
 2046W        W 3243   1.222   0.464   4.565
 2047W        W 3244   0.972   6.509   1.635
 2048W        W 3245   5.501   7.896   7.057
 2049W        W 3246   3.700   4.848   2.493
 2050W        W 3247   6.705   1.082   1.067
 2051W        W 3248   6.919   4.571   4.378
 2052W        W 3249   0.996   0.427   1.936
 2053W        W 3250   6.803   1.112   7.845
 2054W        W 3251   3.600   4.832   0.695
 2055W        W 3252   6.030   2.971   0.358
 2056W        W 3253   6.609   6.345   0.911
 2057W        W 3254   2.102   2.440   4.287
 2058W        W 3255   6.422   6.671   0.547
 2059W        W 3256   0.890   7.407   6.747
 2060W        W 3257   1.090   2.694   4.874
 2061W        W 3258   7.405   7.897   4.281
 2062W        W 3259   1.851   0.764   5.170
 2063W        W 3260   2.051   6.543   2.798
 2064W        W 3261   5.831   4.286   7.080
 2065W        W 3262   1.053   3.736   5.687
 2066W        W 3263   4.272   5.765   1.098
 2067W        W 3264   2.501   1.335   1.433
 2068W        W 3265   7.430   0.433   5.409
 2069W        W 3266   5.071   6.845   4.144
 2070W        W 3267   6.559   6.889   3.162
 2071W        W 3268   5.508   1.670   5.589
 2072W        W 3269   5.356   7.923   7.549
 2073W        W 3270   3.177   5.250   1.110
 2074W        W 3271   5.398   3.620   4.295
 2075W        W 3272   4.787   1.431   4.054
 2076W        W 3273   3.773   5.622   5.085
 2077W        W 3274   6.868   6.319   4.223
 2078W        W 3275   0.416   2.401   7.057
 2079W        W 3276   2.488   4.121   2.796
 2080W        W 3277   1.161   6.888   2.436
 2081W        W 3278   0.856   0.259   0.694
 2082W        W 3279   6.355   3.365   0.456
 2083W        W 3280   6.393   3.807   6.104
 2084W        W 3281   2.384   6.370   1.178
 2085W        W 3282   7.751   2.477   2.581
 2086W        W 3283   2.330   4.354   0.924
 2087W        W 3284   4.844   5.480   4.327
 2088W        W 3285   5.358   3.108   6.731
 2089W        W 3286   1.587   3.295   3.244
 2090W        W 3287   4.879   3.921   2.925
 2091W        W 3288   2.770   6.598   4.230
 2092W        W 3289   0.076   2.854   6.326
 2093W        W 3290   4.643   5.980   1.936
 2094W        W 3291   4.334   1.402   7.961
 2095W        W 3292   6.572   0.656   4.752
 2096W        W 3293   4.279   0.970   3.249
 2097W        W 3294   4.732   4.142   6.021
 2098W        W 3295   1.470   6.267   4.061
 2099W        W 3296   7.610   1.057   2.518
 2100W        W 3297   6.522   5.368   1.956
 2101W        W 3298   4.625   0.634   1.338
 2102W        W 3299   6.814   6.863   6.672
 2103W        W 3300   4.928   6.026   0.775
 2104W        W 3301   4.908   3.577   2.271
 2105W        W 3302   4.421   7.159   4.680
 2106W        W 3303   6.367   3.201   4.837
 2107W        W 3304   4.319   1.385   1.626
 2108W        W 3305   3.587   6.379   4.438
 2109W        W 3306   3.457   7.253   1.286
 2110W        W 3307   0.175   6.297   4.030
 2111W        W 3308   1.628   3.788   6.660
 2112W        W 3309   5.642   6.400   2.184
 2113W        W 3310   6.080   1.689   0.477
 2114W        W 3311   6.884   1.082   4.606
 2115W        W 3312   4.978   5.737   7.582
 2116W        W 3313   6.263   5.961   4.610
 2117W        W 3314   4.630   1.245   2.994
 2118W        W 3315   1.740   7.790   4.430
 2119W        W 3316   0.791   0.523   5.422
 2120W        W 3317   7.506   3.536   1.959
 2121W        W 3318   5.279   7.966   0.952
 2122W        W 3319   5.472   4.799   5.870
 2123W        W 3320   6.131   5.759   3.652
 2124W        W 3321   7.264   4.759   1.434
 2125W        W 3322   6.909   2.728   0.987
 2126W        W 3323   6.810   1.600   1.009
 2127W        W 3324   4.268   0.874   0.170
 2128W        W 3325   4.633   0.939   2.322
 2129W        W 3326   4.261   1.301   4.041
 2130W        W 3327   7.232   0.454   5.893
 2131W        W 3328   1.261   2.095   3.545
 2132W        W 3329   7.262   3.021   0.745
 2133W        W 3330   4.216   0.622   7.122
 2134W        W 3331   2.784   1.515   2.440
 2135W        W 3332   4.629   2.464   1.689
 2136W        W 3333   5.746   6.665   3.585
 2137W        W 3334   4.017   3.869   7.961
 2138W        W 3335   5.910   5.013   1.990
 2139W        W 3336   1.658   1.236   4.595
 2140W        W 3337   3.011   7.144   2.150
 2141W        W 3338   7.637   3.166   1.062
 2142W        W 3339   6.298   5.049   6.090
 2143W        W 3340   3.781   3.038   7.748
 2144W        W 3341   1.959   1.949   4.148
 2145W        W 3342   4.770   5.959   4.042
 2146W        W 3343   5.840   5.162   5.820
 2147W        W 3344   2.469   3.400   6.099
 2148W        W 3345   6.260   5.315   2.843
 2149W        W 3346   6.581   6.374   4.681
 2150W        W 3347   6.282   0.580   5.648
 2151W        W 3348   2.134   5.990   2.528
 2152W        W 3349   6.169   2.569   4.213
 2153W        W 3350   6.207   2.699   4.711
 2154W        W 3351   7.008   7.148   5.697
 2155W        W 3352   4.071   6.838   3.266
 2156W        W 3353   1.703   2.729   2.953
 2157W        W 3354   6.981   5.539   6.177
 2158W        W 3355   7.420   1.824   4.312
 2159W        W 3356   1.901   5.675   3.272
 2160W        W 3357   4.464   6.957   3.561
 2161W        W 3358   4.775   7.096   6.153
 2162W        W 3359   1.126   1.050   1.304
 2163W        W 3360   2.805   5.914   7.476
 2164W        W 3361   1.707   1.963   5.639
 2165W        W 3362   6.256   6.852   2.751
 2166W        W 3363   6.637   5.212   6.479
 2167W        W 3364   7.950   6.725   4.862
 2168W        W 3365   6.250   5.418   1.108
 2169W        W 3366   1.712   3.572   2.508
 2170W        W 3367   5.671   5.197   3.448
 2171W        W 3368   1.544   0.383   1.796
 2172W        W 3369   6.952   7.202   3.035
 2173W        W 3370   6.247   3.825   1.159
 2174W        W 3371   1.841   2.668   5.113
 2175W        W 3372   4.173   0.219   0.538
 2176W        W 3373   6.479   2.202   2.804
 2177W        W 3374   4.094   3.801   3.807
 2178W        W 3375   4.198   1.165   0.606
 2179W        W 3376   5.883   4.200   1.833
 2180W        W 3377   4.171   3.447   6.541
 2181W        W 3378   7.303   5.668   2.631
 2182W        W 3379   4.059   3.366   2.684
 2183W        W 3380   4.768   6.208   7.478
 2184W        W 3381   6.451   3.354   5.335
 2185W        W 3382   5.721   7.693   1.060
 2186W        W 3383   4.178   0.855   4.313
 2187W        W 3384   3.189   2.111   7.121
 2188W        W 3385   2.908   6.867   3.027
 2189W        W 3386   5.413   3.473   3.158
 2190W        W 3387   2.489   4.355   4.945
 2191W        W 3388   5.343   2.975   1.547
 2192W        W 3389   5.848   2.243   6.620
 2193W        W 3390   2.785   5.711   4.776
 2194W        W 3391   5.205   1.562   5.979
 2195W        W 3392   7.441   7.186   3.242
 2196W        W 3393   5.388   3.667   4.800
 2197W        W 3394   4.993   3.016   4.339
 2198W        W 3395   2.612   0.516   3.563
 2199W        W 3396   1.313   2.514   3.864
 2200W        W 3397   2.104   3.406   3.334
 2201W        W 3398   1.828   3.972   5.048
 2202W        W 3399   5.854   4.313   6.405
 2203W        W 3400   5.114   3.100   5.011
 2204W        W 3401   5.003   5.668   3.323
 2205W        W 3402   7.193   3.620   5.358
 2206W        W 3403   1.872   3.057   2.433
 2207W        W 3404   3.645   1.033   7.411
 2208W        W 3405   6.128   6.080   0.011
 2209W        W 3406   6.999   4.783   3.022
 2210W        W 3407   7.027   7.705   6.407
 2211W        W 3408   4.292   3.769   6.085
 2212W        W 3409   2.397   2.200   1.149
 2213W        W 3410   6.537   2.913   1.281
 2214W        W 3411   5.612   6.239   1.060
 2215W        W 3412   3.406   7.267   6.129
 2216W        W 3413   3.146   6.025   2.003
 2217W        W 3414   6.597   5.890   4.247
 2218W        W 3415   1.644   0.276   5.190
 2219W        W 3416   1.705   0.960   3.904
 2220W        W 3417   2.654   6.432   1.607
 2221W        W 3418   1.428   3.857   4.749
 2222W        W 3419   6.393   4.314   7.211
 2223W        W 3420   4.373   1.450   4.979
 2224W        W 3421   6.122   0.360   7.908
 2225W        W 3422   0.375   6.489   5.080
 2226W        W 3423   5.492   5.942   5.246
 2227W        W 3424   3.895   4.920   1.252
 2228W        W 3425   5.284   6.404   0.668
 2229W        W 3426   5.520   1.312   3.255
 2230W        W 3427   0.962   5.478   4.852
 2231W        W 3428   2.672   0.736   4.794
 2232W        W 3429   1.524   1.756   4.337
 2233W        W 3430   3.779   7.569   2.520
 2234W        W 3431   3.707   0.602   5.940
 2235W        W 3432   4.721   6.602   2.702
 2236W        W 3433   3.483   3.782   0.324
 2237W        W 3434   5.233   2.268   3.938
 2238W        W 3435   0.719   2.765   5.670
 2239W        W 3436   6.653   2.065   0.981
 2240W        W 3437   4.101   2.450   1.651
 2241W        W 3438   2.443   5.899   2.130
 2242W        W 3439   4.972   2.507   3.578
 2243W        W 3440   1.918   6.022   1.992
 2244W        W 3441   5.711   4.744   3.160
 2245W        W 3442   1.340   5.144   4.957
 2246W        W 3443   2.790   1.123   2.784
 2247W        W 3444   6.614   2.700   7.001
 2248W        W 3445   7.582   1.164   6.716
 2249W        W 3446   7.893   3.111   3.788
 2250W        W 3447   2.472   6.878   2.771
 2251W        W 3448   6.289   1.364   5.750
 2252W        W 3449   3.029   3.528   7.960
 2253W        W 3450   5.168   4.622   5.446
 2254W        W 3451   2.751   4.331   7.502
 2255W        W 3452   4.533   3.621   3.951
 2256W        W 3453   0.969   7.394   2.494
 2257W        W 3454   1.443   3.664   2.922
 2258W        W 3455   6.345   5.012   2.294
 2259W        W 3456   6.249   1.714   3.802
 2260W        W 3457   5.061   1.043   3.833
 2261W        W 3458   3.689   3.753   2.650
 2262W        W 3459   3.795   0.009   5.826
 2263W        W 3460   1.644   5.212   0.832
 2264W        W 3461   3.720   7.163   3.440
 2265W        W 3462   0.597   6.056   4.840
 2266W        W 3463   6.384   1.183   4.650
 2267W        W 3464   5.865   3.873   6.119
 2268W        W 3465   1.599   2.296   4.228
 2269W        W 3466   4.660   3.013   7.351
 2270W        W 3467   2.000   1.590   4.503
 2271W        W 3468   2.617   6.853   6.020
 2272W        W 3469   0.188   2.871   5.788
 2273W        W 3470   6.619   1.969   4.765
 2274W        W 3471   6.141   4.999   3.240
 2275W        W 3472   0.219   2.902   3.416
 2276W        W 3473   7.745   6.943   2.919
 2277W        W 3474   5.700   2.632   1.574
 2278W        W 3475   2.946   3.971   1.213
 2279W        W 3476   1.214   7.721   6.462
 2280W        W 3477   3.721   5.706   6.486
 2281W        W 3478   3.359   3.789   6.502
 2282W        W 3479   2.592   5.555   3.494
 2283W        W 3480   7.253   6.794   2.898
 2284W        W 3481   1.896   2.318   1.215
 2285W        W 3482   4.499   0.394   2.316
 2286W        W 3483   1.110   5.977   4.841
 2287W        W 3484   7.799   2.509   2.029
 2288W        W 3485   1.732   1.783   6.137
 2289W        W 3486   7.701   3.026   2.030
 2290W        W 3487   5.009   4.740   4.327
 2291W        W 3488   5.471   0.793   5.742
 2292W        W 3489   5.800   5.497   4.886
 2293W        W 3490   3.021   1.716   2.844
 2294W        W 3491   3.808   7.427   6.408
 2295W        W 3492   4.104   2.291   7.176
 2296W        W 3493   3.117   0.676   5.915
 2297W        W 3494   4.205   2.692   2.097
 2298W        W 3495   7.345   3.258   2.344
 2299W        W 3496   6.306   3.559   4.443
 2300W        W 3497   6.026   5.864   1.251
 2301W        W 3498   4.921   2.416   5.159
 2302W        W 3499   2.916   5.606   2.128
 2303W        W 3500   2.616   4.718   7.124
 2304W        W 3501   6.731   4.622   1.438
 2305W        W 3502   1.986   4.802   3.353
 2306W        W 3503   7.608   6.482   2.657
 2307W        W 3504   5.408   6.027   7.490
 2308W        W 3505   1.797   4.295   6.792
 2309W        W 3506   3.548   6.901   0.941
 2310W        W 3507   4.534   3.392   4.390
 2311W        W 3508   2.796   1.729   3.290
 2312W        W 3509   5.813   7.289   5.647
 2313W        W 3510   3.980   2.117   0.676
 2314W        W 3511   2.536   5.482   5.522
 2315W        W 3512   0.916   0.459   2.459
 2316W        W 3513   2.072   2.133   0.765
 2317W        W 3514   0.129   2.769   6.853
 2318W        W 3515   2.231   1.661   1.040
 2319W        W 3516   1.419   0.631   6.965
 2320W        W 3517   5.441   2.482   5.234
 2321W        W 3518   7.121   2.771   7.001
 2322W        W 3519   2.906   2.452   7.375
 2323W        W 3520   0.154   2.319   2.837
 2324W        W 3521   6.714   7.809   3.598
 2325W        W 3522   7.072   6.100   3.441
 2326W        W 3523   2.356   4.666   1.886
 2327W        W 3524   4.511   2.564   6.142
 2328W        W 3525   5.068   0.393   1.321
 2329W        W 3526   0.873   0.643   1.488
 2330W        W 3527   6.451   1.968   4.247
 2331W        W 3528   0.830   2.401   4.012
 2332W        W 3529   2.384   4.060   7.756
 2333W        W 3530   5.096   7.899   1.458
 2334W        W 3531   3.811   5.677   1.951
 2335W        W 3532   6.011   1.421   1.255
 2336W        W 3533   0.834   5.777   4.455
 2337W        W 3534   4.909   0.383   0.831
 2338W        W 3535   5.983   6.386   6.948
 2339W        W 3536   4.906   4.310   4.077
 2340W        W 3537   6.776   1.071   2.651
 2341W        W 3538   1.074   5.138   3.074
 2342W        W 3539   1.802   6.491   4.902
 2343W        W 3540   7.095   0.776   0.826
 2344W        W 3541   1.117   6.596   5.566
 2345W        W 3542   5.732   0.099   0.740
 2346W        W 3543   5.824   1.471   3.947
 2347W        W 3544   1.358   7.585   2.232
 2348W        W 3545   0.621   6.973   6.941
 2349W        W 3546   2.357   1.518   5.254
 2350W        W 3547   2.658   6.425   5.329
 2351W        W 3548   1.529   5.998   3.224
 2352W        W 3549   0.588   5.150   2.844
 2353W        W 3550   0.129   2.838   1.748
 2354W        W 3551   1.995   3.803   1.547
 2355W        W 3552   6.174   3.368   2.566
 2356W        W 3553   6.521   3.358   6.373
 2357W        W 3554   0.337   6.445   6.091
 2358W        W 3555   3.464   0.685   0.651
 2359W        W 3556   4.544   5.054   0.710
 2360W        W 3557   2.141   1.615   5.694
 2361W        W 3558   6.929   7.210   6.240
 2362W        W 3559   5.699   3.544   2.714
 2363W        W 3560   4.513   6.733   5.430
 2364W        W 3561   3.479   3.211   1.544
 2365W        W 3562   0.627   2.053   6.355
 2366W        W 3563   6.378   7.857   7.532
 2367W        W 3564   1.467   1.795   1.742
 2368W        W 3565   0.453   2.533   6.531
 2369W        W 3566   1.894   7.568   2.765
 2370W        W 3567   5.407   3.521   7.061
 2371W        W 3568   1.972   1.824   2.806
 2372W        W 3569   0.751   2.771   6.882
 2373W        W 3570   1.273   0.047   0.459
 2374W        W 3571   2.509   7.201   2.258
 2375W        W 3572   7.837   3.462   2.359
 2376W        W 3573   7.426   4.968   0.994
 2377W        W 3574   6.004   1.615   7.754
 2378W        W 3575   5.558   7.094   2.203
 2379W        W 3576   3.449   7.718   1.077
 2380W        W 3577   7.453   5.362   5.994
 2381W        W 3578   2.826   2.876   5.322
 2382W        W 3579   4.138   5.758   4.785
 2383W        W 3580   7.969   5.791   1.202
 2384W        W 3581   2.946   1.333   3.576
 2385W        W 3582   0.645   1.865   2.253
 2386W        W 3583   4.455   5.546   3.985
 2387W        W 3584   3.639   3.171   7.264
 2388W        W 3585   4.955   0.760   5.447
 2389W        W 3586   3.636   2.273   6.927
 2390W        W 3587   4.123   1.824   1.767
 2391W        W 3588   1.372   0.465   7.482
 2392W        W 3589   3.825   4.773   5.610
 2393W        W 3590   1.923   0.920   5.843
 2394W        W 3591   6.209   2.108   1.224
 2395W        W 3592   6.637   6.760   4.111
 2396W        W 3593   7.091   2.650   3.793
 2397W        W 3594   5.862   1.473   7.261
 2398W        W 3595   3.082   4.838   0.775
 2399W        W 3596   5.140   0.968   2.494
 2400W        W 3597   1.443   6.431   1.518
 2401W        W 3598   2.846   7.711   2.807
 2402W        W 3599   3.039   3.307   1.801
 2403W        W 3600   0.467   0.343   1.439
 2404W        W 3601   0.515   1.679   6.708
 2405W        W 3602   5.133   1.166   5.683
 2406W        W 3603   4.628   0.792   0.632
 2407W        W 3604   6.409   4.257   0.222
 2408W        W 3605   5.755   4.463   0.743
 2409W        W 3606   5.735   6.830   4.743
 2410W        W 3607   0.416   5.221   2.185
 2411W        W 3608   4.291   7.201   7.049
 2412W        W 3609   5.026   2.272   4.406
 2413W        W 3610   6.343   0.568   7.096
 2414W        W 3611   2.933   4.023   7.881
 2415W        W 3612   1.937   5.645   0.708
 2416W        W 3613   6.933   2.672   5.193
 2417W        W 3614   1.396   7.716   2.729
 2418W        W 3615   2.689   3.675   7.592
 2419W        W 3616   2.836   0.945   7.076
 2420W        W 3617   6.504   4.641   7.884
 2421W        W 3618   2.253   4.037   5.318
 2422W        W 3619   4.878   5.143   1.106
 2423W        W 3620   2.539   7.712   2.375
 2424W        W 3621   2.521   3.693   3.084
 2425W        W 3622   2.840   0.260   6.083
 2426W        W 3623   2.094   7.041   6.437
 2427W        W 3624   7.080   5.270   0.743
 2428W        W 3625   4.180   5.472   5.726
 2429W        W 3626   6.576   3.980   4.666
 2430W        W 3627   3.930   6.585   6.487
 2431W        W 3628   2.647   0.480   5.241
 2432W        W 3629   4.584   4.622   0.460
 2433W        W 3630   6.869   1.874   5.750
 2434W        W 3631   4.099   1.362   3.551
 2435W        W 3632   7.081   3.679   1.696
 2436W        W 3633   1.631   3.489   5.031
 2437W        W 3634   4.913   7.222   4.474
 2438W        W 3635   3.672   3.903   7.317
 2439W        W 3636   4.719   6.703   2.182
 2440W        W 3637   4.243   1.708   4.552
 2441W        W 3638   4.086   6.483   5.219
 2442W        W 3639   6.397   1.824   5.980
 2443W        W 3640   7.833   6.463   4.377
 2444W        W 3641   5.732   2.367   4.019
 2445W        W 3642   5.458   4.260   6.717
 2446W        W 3643   1.326   3.311   1.287
 2447W        W 3644   3.262   2.192   2.836
 2448W        W 3645   1.390   4.688   5.677
 2449W        W 3646   5.850   6.940   5.269
 2450W        W 3647   5.946   5.859   0.732
 2451W        W 3648   4.072   3.873   1.855
 2452W        W 3649   3.648   2.515   0.841
 2453W        W 3650   5.718   5.203   4.467
 2454W        W 3651   0.468   1.604   4.357
 2455W        W 3652   4.347   7.254   1.506
 2456W        W 3653   7.437   1.073   1.712
 2457W        W 3654   2.645   1.260   0.951
 2458W        W 3655   1.658   4.882   5.266
 2459W        W 3656   0.922   7.140   0.495
 2460W        W 3657   1.449   5.242   2.716
 2461W        W 3658   4.809   3.864   4.320
 2462W        W 3659   0.127   7.294   3.028
 2463W        W 3660   0.072   5.298   6.639
 2464W        W 3661   5.217   1.972   5.188
 2465W        W 3662   1.527   7.087   4.317
 2466W        W 3663   2.722   1.755   1.133
 2467W        W 3664   6.254   5.103   0.293
 2468W        W 3665   1.797   6.514   1.879
 2469W        W 3666   0.260   7.026   5.682
 2470W        W 3667   4.042   2.476   0.098
 2471W        W 3668   3.728   3.460   3.091
 2472W        W 3669   2.861   5.670   5.827
 2473W        W 3670   6.047   4.344   3.329
 2474W        W 3671   3.011   3.339   5.369
 2475W        W 3672   0.347   5.559   5.417
 2476W        W 3673   5.969   2.981   3.423
 2477W        W 3674   2.902   2.221   1.057
 2478W        W 3675   0.160   7.725   2.748
 2479W        W 3676   1.613   7.351   7.267
 2480W        W 3677   2.126   7.479   5.001
 2481W        W 3678   7.758   1.507   2.729
 2482W        W 3679   5.270   6.001   2.995
 2483W        W 3680   3.937   4.250   7.595
 2484W        W 3681   2.738   4.637   2.239
 2485W        W 3682   3.960   7.220   5.496
 2486W        W 3683   1.597   0.970   2.409
 2487W        W 3684   4.347   6.290   5.635
 2488W        W 3685   0.871   0.659   6.290
 2489W        W 3686   1.925   2.008   1.648
 2490W        W 3687   3.667   1.959   1.545
 2491W        W 3688   5.166   4.370   5.870
 2492W        W 3689   2.807   5.640   3.062
 2493W        W 3690   5.229   4.279   4.465
 2494W        W 3691   4.080   6.058   6.405
 2495W        W 3692   5.406   5.827   1.284
 2496W        W 3693   4.532   4.787   2.535
 2497W        W 3694   4.174   3.762   4.309
 2498W        W 3695   3.894   4.340   2.516
 2499W        W 3696   1.127   2.497   4.400
 2500W        W 3697   1.380   3.937   7.474
 2501W        W 3698   2.709   4.951   1.684
 2502W        W 3699   5.491   3.140   3.534
 2503W        W 3700   4.232   7.584   6.683
 2504W        W 3701   4.446   1.286   6.269
 2505W        W 3702   5.845   0.442   5.876
 2506W        W 3703   3.181   0.063   6.424
 2507W        W 3704   7.668   5.083   6.374
 2508W        W 3705   0.789   3.193   5.249
 2509W        W 3706   3.867   5.173   7.289
 2510W        W 3707   2.867   5.993   2.440
 2511W        W 3708   2.299   3.661   5.680
 2512W        W 3709   3.678   3.549   3.643
 2513W        W 3710   4.025   2.789   3.917
 2514W        W 3711   7.502   6.861   5.072
 2515W        W 3712   5.975   1.585   5.391
 2516W        W 3713   1.911   4.068   6.341
 2517W        W 3714   1.523   2.787   4.253
 2518W        W 3715   3.531   5.530   2.800
 2519W        W 3716   5.225   0.805   7.166
 2520W        W 3717   7.858   2.973   2.509
 2521W        W 3718   3.124   4.102   5.672
 2522W        W 3719   2.710   5.948   1.210
 2523W        W 3720   5.557   1.892   3.852
 2524W        W 3721   6.370   1.283   7.657
 2525W        W 3722   3.037   3.276   2.309
 2526W        W 3723   1.052   6.910   4.542
 2527W        W 3724   2.886   2.968   0.569
 2528W        W 3725   4.916   1.664   3.113
 2529W        W 3726   7.150   6.452   6.588
 2530W        W 3727   4.126   7.307   3.720
 2531W        W 3728   3.007   6.671   5.055
 2532W        W 3729   1.174   7.222   6.360
 2533W        W 3730   5.108   6.250   1.236
 2534W        W 3731   5.263   6.706   3.406
 2535W        W 3732   7.737   4.254   5.459
 2536W        W 3733   6.660   3.682   7.178
 2537W        W 3734   6.420   6.114   7.606
 2538W        W 3735   6.873   5.357   5.214
 2539W        W 3736   4.602   6.459   1.384
 2540W        W 3737   1.068   6.016   6.014
 2541W        W 3738   4.349   1.644   0.420
 2542W        W 3739   5.902   6.954   7.910
 2543W        W 3740   0.958   4.809   5.988
 2544W        W 3741   6.319   2.460   5.895
 2545W        W 3742   0.534   3.170   7.123
 2546W        W 3743   1.411   4.874   4.138
 2547W        W 3744   4.276   4.996   4.442
 2548W        W 3745   5.354   2.712   5.842
 2549W        W 3746   1.265   2.456   2.268
 2550W        W 3747   5.033   2.378   6.103
 2551W        W 3748   2.798   7.106   1.661
 2552W        W 3749   0.722   4.016   6.628
 2553W        W 3750   2.217   1.280   6.691
 2554W        W 3751   1.395   0.685   4.990
 2555W        W 3752   3.612   2.581   4.772
 2556W        W 3753   1.462   5.445   3.171
 2557W        W 3754   2.096   6.914   5.930
 2558W        W 3755   3.608   6.075   4.013
 2559W        W 3756   4.871   2.059   4.822
 2560W        W 3757   7.315   4.651   6.458
 2561W        W 3758   2.699   1.234   4.005
 2562W        W 3759   2.924   4.846   1.252
 2563W        W 3760   7.365   5.827   6.886
 2564W        W 3761   5.565   1.650   0.371
 2565W        W 3762   4.863   4.311   2.137
 2566W        W 3763   5.900   1.138   2.643
 2567W        W 3764   6.663   7.270   5.328
 2568W        W 3765   1.753   1.822   1.175
 2569W        W 3766   4.379   4.327   2.708
 2570W        W 3767   1.648   7.401   6.393
 2571W        W 3768   2.101   1.424   6.169
 2572W        W 3769   3.449   2.429   7.479
 2573W        W 3770   2.940   5.503   2.616
 2574W        W 3771   6.608   6.452   1.908
 2575W        W 3772   4.590   1.276   3.621
 2576W        W 3773   3.237   6.765   2.665
 2577W        W 3774   2.424   3.974   1.259
 2578W        W 3775   1.190   6.808   7.628
 2579W        W 3776   1.258   4.105   3.116
 2580W        W 3777   1.067   3.165   7.114
 2581W        W 3778   0.354   2.494   4.231
 2582W        W 3779   6.197   2.842   1.710
 2583W        W 3780   5.087   0.497   6.458
 2584W        W 3781   4.641   2.848   5.104
 2585W        W 3782   3.172   6.777   5.927
 2586W        W 3783   5.673   5.927   3.827
 2587W        W 3784   3.364   7.485   6.644
 2588W        W 3785   3.760   6.852   4.321
 2589W        W 3786   2.700   2.696   0.154
 2590W        W 3787   1.873   3.720   5.974
 2591W        W 3788   1.580   2.563   5.523
 2592W        W 3789   5.605   0.808   2.401
 2593W        W 3790   6.255   2.786   7.937
 2594W        W 3791   0.015   2.561   0.825
 2595W        W 3792   0.933   5.527   2.777
 2596W        W 3793   7.296   4.449   2.752
 2597W        W 3794   3.536   4.019   3.038
 2598W        W 3795   3.372   2.342   1.235
 2599W        W 3796   6.034   2.491   2.050
 2600W        W 3797   6.629   5.748   7.311
 2601W        W 3798   4.931   0.072   2.325
 2602W        W 3799   7.290   2.606   1.914
 2603W        W 3800   3.990   3.377   0.093
 2604W        W 3801   1.296   0.240   2.734
 2605W        W 3802   3.313   4.382   6.081
 2606W        W 3803   4.969   4.764   3.824
 2607W        W 3804   0.896   3.944   6.135
 2608W        W 3805   4.165   6.010   2.108
 2609W        W 3806   4.851   1.414   1.645
 2610W        W 3807   3.185   7.335   3.044
 2611W        W 3808   5.445   4.973   2.224
 2612W        W 3809   4.528   5.682   3.035
 2613W        W 3810   1.325   1.289   2.701
 2614W        W 3811   3.425   2.452   5.228
 2615W        W 3812   4.659   6.261   5.248
 2616W        W 3813   6.965   5.026   4.634
 2617W        W 3814   5.082   5.453   5.652
 2618W        W 3815   4.517   1.894   7.993
 2619W        W 3816   3.648   2.037   3.607
 2620W        W 3817   7.150   1.811   2.111
 2621W        W 3818   4.331   5.119   3.046
 2622W        W 3819   5.034   0.892   7.648
 2623W        W 3820   0.664   2.533   4.647
 2624W        W 3821   1.799   1.441   4.064
 2625W        W 3822   5.416   3.193   4.579
 2626W        W 3823   3.725   6.846   5.224
 2627W        W 3824   2.750   6.326   2.087
 2628W        W 3825   1.073   2.146   2.618
 2629W        W 3826   1.305   5.615   5.222
 2630W        W 3827   2.595   0.670   2.497
 2631W        W 3828   3.669   3.985   2.188
 2632W        W 3829   6.453   6.387   2.898
 2633W        W 3830   7.170   7.617   3.926
 2634W        W 3831   0.761   6.907   6.425
 2635W        W 3832   7.528   2.722   6.273
 2636W        W 3833   5.495   6.230   3.452
 2637W        W 3834   6.427   5.841   0.864
 2638W        W 3835   2.094   1.096   3.274
 2639W        W 3836   6.515   2.207   7.210
 2640W        W 3837   0.406   6.810   2.352
 2641W        W 3838   6.169   4.127   3.769
 2642W        W 3839   6.877   1.987   5.205
 2643W        W 3840   5.212   2.191   2.307
 2644W        W 3841   1.702   2.689   2.137
 2645W        W 3842   7.447   5.558   6.455
 2646W        W 3843   6.691   3.149   7.204
 2647W        W 3844   6.437   4.105   5.160
 2648W        W 3845   6.142   6.975   3.465
 2649W        W 3846   3.129   4.418   1.407
 2650W        W 3847   1.422   3.862   6.181
 2651W        W 3848   6.849   2.760   1.683
 2652W        W 3849   2.487   0.404   1.635
 2653W        W 3850   2.848   6.550   3.409
 2654W        W 3851   4.168   4.563   6.776
 2655W        W 3852   6.194   4.282   6.031
 2656W        W 3853   7.149   1.304   2.056
 2657W        W 3854   5.881   3.368   4.219
 2658W        W 3855   1.202   0.984   4.635
 2659W        W 3856   4.632   7.672   1.548
 2660W        W 3857   4.042   7.516   7.993
 2661W        W 3858   0.650   5.311   4.279
 2662W        W 3859   2.385   1.689   6.942
 2663W        W 3860   6.846   5.980   6.889
 2664W        W 3861   1.846   6.936   0.718
 2665W        W 3862   6.291   4.621   6.398
 2666W        W 3863   1.997   6.451   0.844
 2667W        W 3864   3.221   5.617   6.646
 2668W        W 3865   3.833   3.744   6.309
 2669W        W 3866   6.773   6.061   0.508
 2670W        W 3867   5.190   6.395   2.602
 2671W        W 3868   7.723   5.685   5.688
 2672W        W 3869   2.671   7.333   3.113
 2673W        W 3870   2.879   0.947   1.303
 2674W        W 3871   1.643   1.155   6.161
 2675W        W 3872   4.515   1.712   2.786
 2676W        W 3873   1.693   1.900   3.329
 2677W        W 3874   6.850   0.371   6.750
 2678W        W 3875   4.950   4.170   1.660
 2679W        W 3876   2.645   7.868   3.249
 2680W        W 3877   4.388   7.505   1.954
 2681W        W 3878   3.239   5.903   1.276
 2682W        W 3879   0.465   2.753   2.796
 2683W        W 3880   3.234   0.284   1.936
 2684W        W 3881   3.032   5.687   0.877
 2685W        W 3882   6.045   4.637   0.295
 2686W        W 3883   1.685   7.856   0.702
 2687W        W 3884   1.159   7.122   2.920
 2688W        W 3885   4.411   6.743   7.274
 2689W        W 3886   0.743   6.718   1.227
 2690W        W 3887   4.394   1.711   7.516
 2691W        W 3888   0.724   6.302   5.717
 2692W        W 3889   3.313   5.676   6.165
 2693W        W 3890   2.691   0.737   6.187
 2694W        W 3891   3.174   2.598   1.904
 2695W        W 3892   1.431   2.165   1.374
 2696W        W 3893   4.545   2.459   4.780
 2697W        W 3894   3.413   0.650   5.501
 2698W        W 3895   6.660   2.625   6.447
 2699W        W 3896   5.123   7.727   6.760
 2700W        W 3897   6.640   5.030   5.542
 2701W        W 3898   7.013   7.625   5.441
 2702W        W 3899   2.787   3.270   4.405
 2703W        W 3900   3.074   7.514   1.534
 2704W        W 3901   4.244   4.244   4.508
 2705W        W 3902   5.516   6.851   5.680
 2706W        W 3903   1.239   6.710   6.412
 2707W        W 3904   2.675   2.681   1.793
 2708W        W 3905   0.574   3.772   0.642
 2709W        W 3906   1.610   5.916   2.381
 2710W        W 3907   7.653   3.919   1.037
 2711W        W 3908   5.399   4.126   2.026
 2712W        W 3909   3.792   4.926   6.819
 2713W        W 3910   7.281   6.613   3.959
 2714W        W 3911   1.242   2.343   1.794
 2715W        W 3912   1.608   3.391   6.281
 2716W        W 3913   3.892   3.851   5.729
 2717W        W 3914   3.775   1.058   0.893
 2718W        W 3915   5.338   5.478   5.146
 2719W        W 3916   2.455   5.313   3.911
 2720W        W 3917   1.248   3.372   5.344
 2721W        W 3918   7.181   1.400   7.014
 2722W        W 3919   2.350   2.042   1.947
 2723W        W 3920   3.371   0.609   6.353
 2724W        W 3921   3.143   3.097   4.085
 2725W        W 3922   3.439   3.861   7.810
 2726W        W 3923   5.019   1.360   1.151
 2727W        W 3924   6.138   2.535   5.423
 2728W        W 3925   4.114   6.429   6.051
 2729W        W 3926   4.827   0.076   6.568
 2730W        W 3927   2.030   1.124   1.164
 2731W        W 3928   4.894   0.536   2.571
 2732W        W 3929   0.790   5.322   5.305
 2733W        W 3930   4.175   5.305   0.932
 2734W        W 3931   4.240   6.731   4.468
 2735W        W 3932   5.371   0.483   1.718
 2736W        W 3933   5.427   3.574   5.982
 2737W        W 3934   7.906   6.088   5.404
 2738W        W 3935   2.370   6.586   4.536
 2739W        W 3936   2.830   4.409   1.008
 2740W        W 3937   0.964   6.291   2.089
 2741W        W 3938   1.236   4.332   1.118
 2742W        W 3939   3.248   7.988   1.469
 2743W        W 3940   4.476   6.212   0.970
 2744W        W 3941   7.716   6.465   1.119
 2745W        W 3942   6.325   0.381   6.622
 2746W        W 3943   0.329   0.592   5.219
 2747W        W 3944   0.903   0.616   7.705
 2748W        W 3945   2.436   5.558   4.378
 2749W        W 3946   6.297   0.376   6.120
 2750W        W 3947   3.916   6.988   6.123
 2751W        W 3948   5.175   0.123   7.987
 2752W        W 3949   4.538   5.427   1.368
 2753W        W 3950   3.937   3.553   2.220
 2754W        W 3951   3.979   3.891   4.777
 2755W        W 3952   5.355   0.594   0.074
 2756W        W 3953   1.876   4.090   0.954
 2757W        W 3954   5.403   0.480   0.941
 2758W        W 3955   5.366   2.659   4.297
 2759W        W 3956   3.722   2.008   7.390
 2760W        W 3957   4.865   1.579   4.997
 2761W        W 3958   5.707   1.744   6.821
 2762W        W 3959   2.649   3.213   6.790
 2763W        W 3960   1.798   7.369   1.595
 2764W        W 3961   6.786   4.412   4.889
 2765W        W 3962   5.747   2.306   1.134
 2766W        W 3963   7.334   5.959   1.868
 2767W        W 3964   2.067   6.087   3.029
 2768W        W 3965   6.120   0.719   3.595
 2769W        W 3966   5.777   3.284   2.287
 2770W        W 3967   3.994   6.050   0.785
 2771W        W 3968   5.259   1.748   4.698
 2772W        W 3969   4.796   5.021   1.589
 2773W        W 3970   3.935   0.573   3.949
 2774W        W 3971   5.958   5.091   7.080
 2775W        W 3972   1.727   1.001   2.900
 2776W        W 3973   7.740   6.968   1.232
 2777W        W 3974   1.087   0.986   5.252
 2778W        W 3975   3.984   3.822   3.311
 2779W        W 3976   6.440   2.909   6.092
 2780W        W 3977   7.261   1.696   3.830
 2781W        W 3978   6.107   6.285   0.949
 2782W        W 3979   0.549   0.972   5.502
 2783W        W 3980   1.022   3.318   7.984
 2784W        W 3981   2.919   6.381   2.771
 2785W        W 3982   5.021   1.237   3.363
 2786W        W 3983   3.609   2.036   2.464
 2787W        W 3984   0.030   1.877   1.097
 2788W        W 3985   1.688   4.826   2.571
 2789W        W 3986   4.456   5.900   0.568
 2790W        W 3987   4.635   6.864   1.704
 2791W        W 3988   4.550   3.511   2.629
 2792W        W 3989   0.685   6.204   1.329
 2793W        W 3990   5.026   2.995   3.764
 2794W        W 3991   2.333   2.811   4.873
 2795W        W 3992   2.837   7.155   3.573
 2796W        W 3993   6.174   1.097   3.929
 2797W        W 3994   0.614   6.215   4.305
 2798W        W 3995   7.482   6.550   6.190
 2799W        W 3996   2.050   2.093   2.379
 2800W        W 3997   2.658   7.033   5.102
 2801W        W 3998   0.542   2.786   2.034
 2802W        W 3999   5.393   1.242   7.445
 2803W        W 4000   6.257   0.326   4.514
 2804W        W 4001   1.984   7.332   4.454
 2805W        W 4002   4.103   2.205   6.180
 2806W        W 4003   6.482   6.579   2.383
 2807W        W 4004   7.481   5.496   1.002
 2808W        W 4005   2.452   7.323   5.780
 2809W        W 4006   6.790   3.492   4.639
 2810W        W 4007   6.478   5.520   6.868
 2811W        W 4008   0.518   3.692   3.128
 2812W        W 4009   6.239   1.104   7.173
 2813W        W 4010   2.182   0.228   3.703
 2814W        W 4011   3.926   6.276   1.748
 2815W        W 4012   3.157   7.924   3.197
 2816W        W 4013   0.549   2.604   3.662
 2817W        W 4014   5.435   3.136   4.063
 2818W        W 4015   3.207   4.324   4.483
 2819W        W 4016   5.158   4.740   7.509
 2820W        W 4017   3.694   2.188   3.113
 2821W        W 4018   5.811   0.603   1.513
 2822W        W 4019   2.542   2.453   4.602
 2823W        W 4020   7.025   4.410   6.042
 2824W        W 4021   2.999   7.559   6.303
 2825W        W 4022   6.863   6.041   1.692
 2826W        W 4023   3.725   4.240   4.510
 2827W        W 4024   6.324   5.997   3.244
 2828W        W 4025   4.248   2.904   7.902
 2829W        W 4026   5.969   2.939   5.087
 2830W        W 4027   2.513   6.015   5.673
 2831W        W 4028   6.977   0.914   6.038
 2832W        W 4029   7.845   7.267   5.947
 2833W        W 4030   4.741   1.319   7.562
 2834W        W 4031   5.323   1.589   0.815
 2835W        W 4032   7.765   4.624   6.133
 2836W        W 4033   1.578   6.043   6.016
 2837W        W 4034   0.860   3.482   1.436
 2838W        W 4035   5.593   2.253   7.688
 2839W        W 4036   7.693   3.403   5.208
 2840W        W 4037   6.047   0.682   7.505
 2841W        W 4038   6.854   6.488   3.716
 2842W        W 4039   3.959   1.277   4.476
 2843W        W 4040   7.311   1.833   2.616
 2844W        W 4041   6.948   6.751   4.499
 2845W        W 4042   2.231   5.083   1.542
 2846W        W 4043   1.977   3.134   5.008
 2847W        W 4044   5.219   3.193   5.705
 2848W        W 4045   3.722   2.809   4.332
 2849W        W 4046   4.070   7.061   6.605
 2850W        W 4047   3.736   4.679   3.349
 2851W        W 4048   3.263   2.922   4.543
 2852W        W 4049   2.466   0.783   3.001
 2853W        W 4050   2.030   7.394   6.071
 2854W        W 4051   6.121   1.864   6.474
 2855W        W 4052   4.757   2.849   7.841
 2856W        W 4053   7.909   2.283   7.018
 2857W        W 4054   0.118   3.317   1.934
 2858W        W 4055   6.540   3.136   1.917
 2859W        W 4056   4.858   6.574   0.933
 2860W        W 4057   4.416   1.780   4.073
 2861W        W 4058   0.600   0.071   2.705
 2862W        W 4059   1.292   1.143   3.184
 2863W        W 4060   2.314   2.005   4.517
 2864W        W 4061   3.230   1.221   4.015
 2865W        W 4062   6.604   0.073   4.837
 2866W        W 4063   6.439   6.219   7.107
 2867W        W 4064   5.462   0.147   6.057
 2868W        W 4065   4.849   3.800   6.912
 2869W        W 4066   4.753   5.478   1.874
 2870W        W 4067   3.041   6.125   5.016
 2871W        W 4068   1.871   2.240   6.290
 2872W        W 4069   1.003   4.104   0.503
 2873W        W 4070   0.690   5.626   2.340
 2874W        W 4071   6.255   7.604   6.733
 2875W        W 4072   3.034   0.671   2.747
 2876W        W 4073   6.361   1.435   5.098
 2877W        W 4074   0.002   4.536   2.399
 2878W        W 4075   5.826   3.836   4.016
 2879W        W 4076   4.498   4.606   4.188
 2880W        W 4077   7.429   0.143   3.801
 2881W        W 4078   1.845   0.570   7.230
 2882W        W 4079   6.632   7.225   4.364
 2883W        W 4080   2.817   4.181   5.275
 2884W        W 4081   1.167   5.125   6.982
 2885W        W 4082   0.391   4.963   3.285
 2886W        W 4083   7.959   6.471   3.049
 2887W        W 4084   4.780   0.883   6.334
 2888W        W 4085   3.320   5.638   5.649
 2889W        W 4086   2.151   2.327   4.927
 2890W        W 4087   3.934   4.658   7.258
 2891W        W 4088   3.351   1.042   3.535
 2892W        W 4089   3.870   1.514   2.529
 2893W        W 4090   5.762   6.289   0.526
 2894W        W 4091   1.499   3.169   2.772
 2895W        W 4092   3.303   5.126   6.548
 2896W        W 4093   0.663   3.660   0.139
 2897W        W 4094   1.690   4.093   0.412
 2898W        W 4095   5.137   3.731   1.860
 2899W        W 4096   6.574   4.813   4.058
 2900W        W 4097   6.900   1.499   0.162
 2901W        W 4098   3.254   1.469   6.688
 2902W        W 4099   7.060   6.293   4.735
 2903W        W 4100   6.433   5.885   1.988
 2904W        W 4101   0.625   3.452   2.665
 2905W        W 4102   6.914   6.473   3.129
 2906W        W 4103   6.646   5.793   6.468
 2907W        W 4104   2.271   4.295   7.210
 2908W        W 4105   0.722   6.991   2.693
 2909W        W 4106   7.151   5.204   5.617
 2910W        W 4107   5.855   5.245   5.312
 2911W        W 4108   0.033   4.898   2.801
 2912W        W 4109   0.419   2.270   5.010
 2913W        W 4110   3.570   1.095   6.539
 2914W        W 4111   5.007   6.743   5.603
 2915W        W 4112   1.693   3.663   1.158
 2916W        W 4113   7.583   0.358   6.258
 2917W        W 4114   5.899   1.694   5.921
 2918W        W 4115   4.599   5.300   6.783
 2919W        W 4116   0.412   1.349   7.099
 2920W        W 4117   1.769   3.594   4.169
 2921W        W 4118   1.947   6.316   4.409
 2922W        W 4119   4.391   6.033   1.521
 2923W        W 4120   5.106   1.674   2.127
 2924W        W 4121   7.352   6.695   0.850
 2925W        W 4122   1.995   0.621   3.096
 2926W        W 4123   2.274   7.142   1.532
 2927W        W 4124   5.918   0.441   1.051
 2928W        W 4125   6.324   2.686   3.718
 2929W        W 4126   4.918   1.953   5.844
 2930W        W 4127   0.755   4.692   3.024
 2931W        W 4128   3.865   5.253   0.530
 2932W        W 4129   6.604   5.853   0.045
 2933W        W 4130   4.293   2.912   6.484
 2934W        W 4131   1.513   6.736   2.784
 2935W        W 4132   7.315   4.862   5.986
 2936W        W 4133   5.541   3.362   1.832
 2937W        W 4134   5.617   0.906   5.018
 2938W        W 4135   6.739   5.929   5.974
 2939W        W 4136   4.775   2.376   2.179
 2940W        W 4137   6.897   1.235   3.117
 2941W        W 4138   4.138   2.809   4.847
 2942W        W 4139   6.306   1.279   1.832
 2943W        W 4140   3.090   3.313   3.637
 2944W        W 4141   0.622   7.493   2.868
 2945W        W 4142   0.333   1.410   1.200
 2946W        W 4143   0.688   5.437   3.249
 2947W        W 4144   6.638   4.946   5.030
 2948W        W 4145   4.687   1.496   5.856
 2949W        W 4146   6.839   1.513   4.953
 2950W        W 4147   7.793   7.761   5.895
 2951W        W 4148   0.613   6.362   3.770
 2952W        W 4149   6.281   6.580   6.141
 2953W        W 4150   3.893   1.486   0.254
 2954W        W 4151   6.596   0.827   3.766
 2955W        W 4152   6.451   1.009   3.306
 2956W        W 4153   7.195   5.742   5.765
 2957W        W 4154   2.940   0.884   4.322
 2958W        W 4155   1.147   1.393   4.924
 2959W        W 4156   7.387   2.761   2.394
 2960W        W 4157   3.586   6.996   5.740
 2961W        W 4158   1.241   6.497   4.860
 2962W        W 4159   3.514   5.982   1.689
 2963W        W 4160   1.644   7.458   4.819
 2964W        W 4161   4.461   5.788   6.631
 2965W        W 4162   0.209   3.738   4.547
 2966W        W 4163   3.333   1.181   2.004
 2967W        W 4164   7.584   0.109   3.258
 2968W        W 4165   1.574   7.183   2.005
 2969W        W 4166   4.576   1.650   1.288
 2970W        W 4167   5.111   1.892   6.341
 2971W        W 4168   6.178   3.857   7.184
 2972W        W 4169   6.109   7.035   5.990
 2973W        W 4170   2.341   2.240   2.797
 2974W        W 4171   4.446   3.159   1.193
 2975W        W 4172   6.182   7.118   4.902
 2976W        W 4173   4.751   3.567   1.159
 2977W        W 4174   5.727   4.771   5.434
 2978W        W 4175   3.321   7.066   7.002
 2979W        W 4176   1.760   2.961   6.647
 2980W        W 4177   5.897   2.748   5.938
 2981W        W 4178   5.113   7.284   0.289
 2982W        W 4179   1.487   6.961   4.808
 2983W        W 4180   7.573   2.734   3.937
 2984W        W 4181   2.678   2.651   1.243
 2985W        W 4182   5.503   1.085   0.345
 2986W        W 4183   4.011   6.727   5.654
 2987W        W 4184   4.708   2.428   5.677
 2988W        W 4185   2.678   3.202   0.153
 2989W        W 4186   1.680   2.587   7.006
 2990W        W 4187   6.576   7.798   4.256
 2991W        W 4188   1.592   3.923   7.942
 2992W        W 4189   7.207   3.058   4.105
 2993W        W 4190   1.222   4.648   5.137
 2994W        W 4191   0.302   5.835   4.489
 2995W        W 4192   5.122   5.163   3.526
 2996W        W 4193   3.576   1.466   1.146
 2997W        W 4194   3.238   2.102   0.159
 2998W        W 4195   6.213   4.043   4.278
 2999W        W 4196   4.629   4.765   6.676
 3000W        W 4197   5.753   3.839   6.822
 3001W        W 4198   6.891   2.620   7.438
 3002W        W 4199   5.962   2.174   6.099
 3003W        W 4200   5.120   2.702   2.338
 3004W        W 4201   5.124   6.905   2.405
 3005W        W 4202   5.429   5.491   7.589
 3006W        W 4203   0.768   2.112   6.836
 3007W        W 4204   3.858   7.119   2.270
 3008W        W 4205   2.024   6.063   5.778
 3009W        W 4206   5.544   7.688   1.536
 3010W        W 4207   4.822   3.339   7.763
 3011W        W 4208   5.916   3.439   3.190
 3012W        W 4209   4.204   2.586   4.383
 3013W        W 4210   3.793   7.351   6.923
 3014W        W 4211   3.118   4.266   6.544
 3015W        W 4212   4.739   4.374   4.577
 3016W        W 4213   6.732   2.307   3.961
 3017W        W 4214   4.474   3.785   4.716
 3018W        W 4215   7.036   4.695   0.663
 3019W        W 4216   2.118   0.935   6.326
 3020W        W 4217   6.085   4.395   5.386
 3021W        W 4218   6.096   2.329   7.789
 3022W        W 4219   5.175   7.201   5.852
 3023W        W 4220   2.562   6.375   6.720
 3024W        W 4221   3.643   6.156   2.167
 3025W        W 4222   5.145   6.549   7.411
 3026W        W 4223   0.705   7.227   1.164
 3027W        W 4224   2.606   3.202   5.657
 3028W        W 4225   7.240   0.393   4.233
 3029W        W 4226   6.212   2.138   0.701
 3030W        W 4227   2.584   5.204   1.198
 3031W        W 4228   2.048   3.585   6.423
 3032W        W 4229   7.585   0.521   6.758
 3033W        W 4230   4.113   1.865   3.688
 3034W        W 4231   4.824   6.740   6.557
 3035W        W 4232   2.899   0.041   2.242
 3036W        W 4233   0.471   4.730   6.563
 3037W        W 4234   4.508   7.930   6.144
 3038W        W 4235   5.390   4.035   6.182
 3039W        W 4236   6.183   5.435   4.504
 3040W        W 4237   6.165   1.758   1.617
 3041W        W 4238   3.111   2.844   1.457
 3042W        W 4239   1.955   6.648   5.441
 3043W        W 4240   2.109   4.421   4.125
 3044W        W 4241   4.750   4.635   5.157
 3045W        W 4242   0.464   6.369   2.136
 3046W        W 4243   2.663   2.462   5.096
 3047W        W 4244   0.202   2.611   2.383
 3048W        W 4245   2.414   2.906   3.413
 3049W        W 4246   4.693   3.403   6.554
 3050W        W 4247   7.778   6.137   2.044
 3051W        W 4248   0.736   4.175   3.136
 3052W        W 4249   4.333   5.865   2.602
 3053W        W 4250   7.513   4.874   2.994
 3054W        W 4251   2.533   1.012   3.564
 3055W        W 4252   1.008   5.618   7.109
 3056W        W 4253   4.260   6.756   2.500
 3057W        W 4254   6.368   2.334   1.693
 3058W        W 4255   7.811   2.350   4.187
 3059W        W 4256   4.639   5.352   5.826
 3060W        W 4257   7.870   6.273   5.908
 3061W        W 4258   7.724   3.601   4.687
 3062W        W 4259   2.201   6.787   2.361
 3063W        W 4260   1.586   6.338   5.595
 3064W        W 4261   4.740   2.907   6.707
 3065W        W 4262   6.135   4.826   0.776
 3066W        W 4263   4.306   0.809   6.169
 3067W        W 4264   6.913   3.421   2.097
 3068W        W 4265   1.847   6.477   6.010
 3069W        W 4266   3.696   3.723   4.134
 3070W        W 4267   4.650   5.497   7.928
 3071W        W 4268   3.848   2.162   2.000
 3072W        W 4269   2.604   0.882   1.713
 3073W        W 4270   2.762   1.295   5.487
 3074W        W 4271   1.793   4.714   6.495
 3075W        W 4272   2.068   1.806   4.941
 3076W        W 4273   4.840   1.409   2.504
 3077W        W 4274   7.228   6.630   5.697
 3078W        W 4275   6.710   6.296   6.365
 3079W        W 4276   5.468   1.310   6.944
 3080W        W 4277   5.827   3.795   4.537
 3081W        W 4278   4.823   7.220   2.030
 3082W        W 4279   3.305   5.710   4.900
 3083W        W 4280   5.202   1.752   6.835
 3084W        W 4281   6.328   7.089   6.876
 3085W        W 4282   6.778   6.790   2.733
 3086W        W 4283   0.086   0.649   1.601
 3087W        W 4284   0.276   1.880   7.128
 3088W        W 4285   1.048   3.148   5.759
 3089W        W 4286   7.111   1.404   4.241
 3090W        W 4287   6.621   4.001   2.509
 3091W        W 4288   7.198   3.763   2.314
 3092W        W 4289   3.378   7.450   5.633
 3093W        W 4290   4.791   0.551   7.332
 3094W        W 4291   1.298   1.488   5.416
 3095W        W 4292   2.817   6.432   5.802
 3096W        W 4293   5.778   4.733   7.419
 3097W        W 4294   6.833   0.719   4.230
 3098W        W 4295   3.685   7.472   3.020
 3099W        W 4296   2.393   2.884   6.018
 3100W        W 4297   1.939   3.675   4.641
 3101W        W 4298   1.506   6.588   4.453
 3102W        W 4299   5.656   1.021   6.510
 3103W        W 4300   0.462   3.567   5.361
 3104W        W 4301   5.208   5.157   4.579
 3105W        W 4302   0.857   1.637   6.100
 3106W        W 4303   1.140   6.221   2.901
 3107W        W 4304   2.816   6.349   7.184
 3108W        W 4305   7.040   0.485   2.666
 3109W        W 4306   1.200   4.206   6.478
 3110W        W 4307   5.547   0.173   1.333
 3111W        W 4308   2.211   0.367   2.693
 3112W        W 4309   2.030   6.983   1.935
 3113W        W 4310   0.830   6.499   2.530
 3114W        W 4311   3.557   7.686   0.535
 3115W        W 4312   6.006   4.692   4.517
 3116W        W 4313   5.182   1.200   5.167
 3117W        W 4314   3.324   2.894   2.490
 3118W        W 4315   2.908   0.903   3.246
 3119W        W 4316   0.230   3.326   6.127
 3120W        W 4317   2.070   4.325   0.118
 3121W        W 4318   6.309   4.584   4.936
 3122W        W 4319   6.601   1.991   3.578
 3123W        W 4320   2.514   2.731   6.624
 3124W        W 4321   2.329   7.880   2.827
 3125W        W 4322   4.443   2.193   2.658
 3126W        W 4323   7.051   1.420   1.424
 3127W        W 4324   3.871   3.056   2.218
 3128W        W 4325   1.822   3.661   0.627
 3129W        W 4326   2.045   1.073   4.288
 3130W        W 4327   5.425   3.591   3.791
 3131W        W 4328   6.803   1.989   0.064
 3132W        W 4329   5.858   4.168   0.320
 3133W        W 4330   5.976   6.332   6.449
 3134W        W 4331   1.320   6.468   5.997
 3135W        W 4332   4.496   3.050   2.848
 3136W        W 4333   7.048   4.407   1.098
 3137W        W 4334   0.705   3.021   4.769
 3138W        W 4335   4.995   2.830   2.849
 3139W        W 4336   4.142   5.151   3.963
 3140W        W 4337   2.633   3.700   5.307
 3141W        W 4338   2.853   3.166   7.605
 3142W        W 4339   4.935   4.832   2.210
 3143W        W 4340   5.011   4.341   3.176
 3144W        W 4341   5.416   5.334   2.581
 3145W        W 4342   7.400   1.169   6.219
 3146W        W 4343   3.628   3.156   3.970
 3147W        W 4344   5.258   1.593   4.207
 3148W        W 4345   7.452   2.124   1.856
 3149W        W 4346   3.415   4.782   1.166
 3150W        W 4347   0.887   7.656   2.032
 3151W        W 4348   1.392   6.421   0.310
 3152W        W 4349   4.558   0.242   6.998
 3153W        W 4350   5.887   2.181   1.620
 3154W        W 4351   5.445   0.926   1.929
   8.00000   8.00000   8.00000
