Martini system from ../2_Creating_coordinates/TYR-CYS-TYR_aa.pdb
 4222
    1TYR     BB    1   5.060   0.544   2.701
    1TYR    SC1    2   4.846   0.481   2.492
    1TYR    SC2    3   4.646   0.580   2.341
    1TYR    SC3    4   4.706   0.317   2.330
    2CYS     BB    5   5.055   0.878   2.734
    2CYS    SC1    6   4.753   0.947   2.788
    3TYR     BB    7   5.127   1.058   2.477
    3TYR    SC1    8   5.025   0.870   2.253
    3TYR    SC2    9   4.877   0.834   2.030
    3TYR    SC3   10   5.051   0.643   2.108
    1TYR     BB   11   6.171   0.595   6.065
    1TYR    SC1   12   5.887   0.478   6.093
    1TYR    SC2   13   5.760   0.262   5.992
    1TYR    SC3   14   5.617   0.470   6.087
    2CYS     BB   15   6.352   0.470   6.300
    2CYS    SC1   16   6.465   0.700   6.466
    3TYR     BB   17   6.548   0.247   6.212
    3TYR    SC1   18   6.507   7.979   6.360
    3TYR    SC2   19   6.569   7.837   6.581
    3TYR    SC3   20   6.370   7.754   6.418
    1TYR     BB   21   2.804   4.367   5.764
    1TYR    SC1   22   2.710   4.159   5.550
    1TYR    SC2   23   2.573   4.216   5.324
    1TYR    SC3   24   2.716   3.988   5.341
    2CYS     BB   25   2.725   4.645   5.624
    2CYS    SC1   26   2.588   4.842   5.811
    3TYR     BB   27   2.842   4.686   5.354
    3TYR    SC1   28   2.681   4.629   5.104
    3TYR    SC2   29   2.494   4.478   4.980
    3TYR    SC3   30   2.644   4.651   4.837
    1TYR     BB   31   7.668   6.021   4.534
    1TYR    SC1   32   7.601   6.246   4.341
    1TYR    SC2   33   7.725   6.399   4.157
    1TYR    SC3   34   7.463   6.343   4.131
    2CYS     BB   35   0.008   5.979   4.523
    2CYS    SC1   36   0.046   5.738   4.711
    3TYR     BB   37   0.268   6.106   4.348
    3TYR    SC1   38   0.181   6.315   4.138
    3TYR    SC2   39   0.157   6.578   4.084
    3TYR    SC3   40   0.226   6.406   3.888
    1TYR     BB   41   2.602   5.125   3.411
    1TYR    SC1   42   2.526   5.426   3.394
    1TYR    SC2   43   2.575   5.655   3.529
    1TYR    SC3   44   2.498   5.664   3.270
    2CYS     BB   45   2.794   5.132   3.690
    2CYS    SC1   46   2.941   4.863   3.741
    3TYR     BB   47   2.990   5.382   3.684
    3TYR    SC1   48   2.984   5.495   3.398
    3TYR    SC2   49   2.945   5.713   3.243
    3TYR    SC3   50   2.913   5.466   3.139
    1TYR     BB   51   5.713   2.211   5.806
    1TYR    SC1   52   5.574   2.262   5.524
    1TYR    SC2   53   5.441   2.107   5.348
    1TYR    SC3   54   5.432   2.376   5.325
    2CYS     BB   55   5.604   1.917   5.905
    2CYS    SC1   56   5.838   1.724   5.942
    3TYR     BB   57   5.381   1.802   5.745
    3TYR    SC1   58   5.324   1.685   5.479
    3TYR    SC2   59   5.389   1.591   5.234
    3TYR    SC3   60   5.170   1.498   5.361
    1TYR     BB   61   4.613   5.268   6.020
    1TYR    SC1   62   4.649   4.982   5.903
    1TYR    SC2   63   4.578   4.772   5.750
    1TYR    SC3   64   4.739   4.735   5.963
    2CYS     BB   65   4.569   5.452   5.753
    2CYS    SC1   66   4.704   5.723   5.772
    3TYR     BB   67   4.602   5.297   5.486
    3TYR    SC1   68   4.816   5.081   5.494
    3TYR    SC2   69   4.920   4.867   5.368
    3TYR    SC3   70   5.004   4.930   5.616
    1TYR     BB   71   0.489   2.749   3.645
    1TYR    SC1   72   0.561   3.053   3.645
    1TYR    SC2   73   0.516   3.310   3.712
    1TYR    SC3   74   0.676   3.252   3.502
    2CYS     BB   75   0.782   2.616   3.760
    2CYS    SC1   76   0.701   2.534   4.050
    3TYR     BB   77   0.990   2.852   3.797
    3TYR    SC1   78   1.126   2.927   3.542
    3TYR    SC2   79   1.350   3.042   3.445
    3TYR    SC3   80   1.252   2.818   3.330
    1TYR     BB   81   0.809   3.550   4.020
    1TYR    SC1   82   1.012   3.726   4.171
    1TYR    SC2   83   1.137   3.805   4.397
    1TYR    SC3   84   1.171   3.944   4.168
    2CYS     BB   85   1.013   3.343   3.861
    2CYS    SC1   86   1.148   3.459   3.610
    3TYR     BB   87   1.248   3.274   4.053
    3TYR    SC1   88   1.417   3.550   4.044
    3TYR    SC2   89   1.600   3.737   4.109
    3TYR    SC3   90   1.474   3.748   3.870
    1TYR     BB   91   2.486   2.174   1.412
    1TYR    SC1   92   2.695   2.365   1.559
    1TYR    SC2   93   2.821   2.578   1.452
    1TYR    SC3   94   2.925   2.455   1.669
    2CYS     BB   95   2.528   2.351   1.096
    2CYS    SC1   96   2.290   2.492   0.970
    3TYR     BB   97   2.815   2.344   1.006
    3TYR    SC1   98   2.997   2.590   1.027
    3TYR    SC2   99   3.248   2.656   0.955
    3TYR    SC3  100   3.137   2.768   1.174
    1TYR     BB  101   1.973   1.604   3.511
    1TYR    SC1  102   1.949   1.860   3.348
    1TYR    SC2  103   1.965   2.129   3.333
    1TYR    SC3  104   1.925   1.984   3.109
    2CYS     BB  105   2.276   1.496   3.396
    2CYS    SC1  106   2.463   1.582   3.623
    3TYR     BB  107   2.354   1.640   3.108
    3TYR    SC1  108   2.378   1.931   3.200
    3TYR    SC2  109   2.447   2.060   3.426
    3TYR    SC3  110   2.400   2.200   3.200
    1TYR     BB  111   7.145   2.855   6.792
    1TYR    SC1  112   7.095   3.044   7.034
    1TYR    SC2  113   6.933   3.248   7.106
    1TYR    SC3  114   7.025   3.076   7.293
    2CYS     BB  115   6.792   2.941   6.669
    2CYS    SC1  116   6.904   3.222   6.574
    3TYR     BB  117   6.535   3.028   6.874
    3TYR    SC1  118   6.557   2.970   7.180
    3TYR    SC2  119   6.601   3.078   7.423
    3TYR    SC3  120   6.519   2.821   7.402
    1TYR     BB  121   2.119   7.206   3.844
    1TYR    SC1  122   2.129   7.488   3.696
    1TYR    SC2  123   2.282   7.679   3.583
    1TYR    SC3  124   2.013   7.687   3.554
    2CYS     BB  125   2.411   7.247   4.038
    2CYS    SC1  126   2.443   7.012   4.236
    3TYR     BB  127   2.701   7.276   3.854
    3TYR    SC1  128   2.604   7.244   3.554
    3TYR    SC2  129   2.391   7.268   3.390
    3TYR    SC3  130   2.610   7.132   3.309
    1TYR     BB  131   5.241   6.784   5.033
    1TYR    SC1  132   5.465   6.641   4.866
    1TYR    SC2  133   5.596   6.409   4.825
    1TYR    SC3  134   5.559   6.581   4.621
    2CYS     BB  135   5.008   6.538   4.998
    2CYS    SC1  136   4.726   6.635   5.035
    3TYR     BB  137   5.079   6.273   4.864
    3TYR    SC1  138   5.193   6.324   4.586
    3TYR    SC2  139   5.356   6.219   4.398
    3TYR    SC3  140   5.154   6.383   4.326
    1TYR     BB  141   0.935   1.601   6.548
    1TYR    SC1  142   1.018   1.899   6.498
    1TYR    SC2  143   1.137   2.081   6.338
    1TYR    SC3  144   1.061   2.151   6.587
    2CYS     BB  145   1.053   1.458   6.272
    2CYS    SC1  146   1.237   1.231   6.371
    3TYR     BB  147   1.051   1.674   6.050
    3TYR    SC1  148   1.319   1.808   6.007
    3TYR    SC2  149   1.563   1.781   5.894
    3TYR    SC3  150   1.533   1.931   6.117
    1TYR     BB  151   4.778   7.139   3.478
    1TYR    SC1  152   4.672   7.339   3.260
    1TYR    SC2  153   4.631   7.605   3.232
    1TYR    SC3  154   4.470   7.429   3.105
    2CYS     BB  155   4.859   6.870   3.326
    2CYS    SC1  156   5.014   6.684   3.510
    3TYR     BB  157   4.970   6.897   3.036
    3TYR    SC1  158   4.743   7.002   2.861
    3TYR    SC2  159   4.697   7.090   2.610
    3TYR    SC3  160   4.505   7.112   2.798
    1TYR     BB  161   1.959   7.689   3.049
    1TYR    SC1  162   1.841   7.979   3.096
    1TYR    SC2  163   1.900   0.202   2.956
    1TYR    SC3  164   1.686   0.198   3.120
    2CYS     BB  165   2.055   7.753   2.724
    2CYS    SC1  166   2.056   7.502   2.562
    3TYR     BB  167   2.264   7.981   2.667
    3TYR    SC1  168   2.131   0.195   2.498
    3TYR    SC2  169   1.871   0.267   2.509
    3TYR    SC3  170   2.045   0.409   2.358
    1TYR     BB  171   6.022   0.765   4.504
    1TYR    SC1  172   5.781   0.910   4.619
    1TYR    SC2  173   5.632   0.948   4.841
    1TYR    SC3  174   5.608   1.117   4.633
    2CYS     BB  175   6.264   0.974   4.613
    2CYS    SC1  176   6.391   1.072   4.357
    3TYR     BB  177   6.171   1.214   4.790
    3TYR    SC1  178   5.944   1.270   4.977
    3TYR    SC2  179   5.887   1.421   5.194
    3TYR    SC3  180   5.694   1.364   5.014
    1TYR     BB  181   1.343   0.547   7.970
    1TYR    SC1  182   1.392   0.775   0.173
    1TYR    SC2  183   1.278   0.976   0.313
    1TYR    SC3  184   1.540   0.989   0.247
    2CYS     BB  185   1.301   0.282   0.153
    2CYS    SC1  186   1.003   0.234   0.219
    3TYR     BB  187   1.504   0.263   0.435
    3TYR    SC1  188   1.630   0.543   0.493
    3TYR    SC2  189   1.659   0.774   0.630
    3TYR    SC3  190   1.854   0.691   0.463
    1TYR     BB  191   7.047   0.910   0.367
    1TYR    SC1  192   7.110   0.718   0.597
    1TYR    SC2  193   7.269   0.632   0.798
    1TYR    SC3  194   7.043   0.497   0.737
    2CYS     BB  195   7.115   1.205   0.517
    2CYS    SC1  196   7.403   1.259   0.400
    3TYR     BB  197   7.179   1.162   0.837
    3TYR    SC1  198   7.009   0.972   0.994
    3TYR    SC2  199   6.930   0.740   1.107
    3TYR    SC3  200   6.812   0.972   1.178
    1TYR     BB  201   1.580   5.601   5.020
    1TYR    SC1  202   1.886   5.568   5.090
    1TYR    SC2  203   2.124   5.685   5.140
    1TYR    SC3  204   2.094   5.419   5.177
    2CYS     BB  205   1.574   5.834   4.804
    2CYS    SC1  206   1.712   5.710   4.555
    3TYR     BB  207   1.771   6.073   4.910
    3TYR    SC1  208   1.812   6.013   5.216
    3TYR    SC2  209   1.945   6.034   5.450
    3TYR    SC3  210   1.750   5.850   5.422
    1TYR     BB  211   2.007   0.744   5.107
    1TYR    SC1  212   1.850   0.673   5.366
    1TYR    SC2  213   1.630   0.546   5.457
    1TYR    SC3  214   1.839   0.591   5.622
    2CYS     BB  215   2.117   0.372   5.067
    2CYS    SC1  216   2.396   0.442   4.963
    3TYR     BB  217   1.979   0.181   5.326
    3TYR    SC1  218   2.026   7.878   5.272
    3TYR    SC2  219   2.177   7.707   5.129
    3TYR    SC3  220   2.065   7.626   5.361
    1TYR     BB  221   7.264   6.635   3.586
    1TYR    SC1  222   7.423   6.382   3.675
    1TYR    SC2  223   7.643   6.234   3.727
    1TYR    SC3  224   7.400   6.115   3.714
    2CYS     BB  225   7.139   6.753   3.887
    2CYS    SC1  226   7.055   7.044   3.809
    3TYR     BB  227   7.384   6.831   4.123
    3TYR    SC1  228   7.628   6.784   3.930
    3TYR    SC2  229   7.708   6.878   3.690
    3TYR    SC3  230   7.813   6.650   3.788
    1TYR     BB  231   0.466   4.363   1.318
    1TYR    SC1  232   0.607   4.513   1.076
    1TYR    SC2  233   0.554   4.627   0.837
    1TYR    SC3  234   0.803   4.640   0.940
    2CYS     BB  235   0.149   4.517   1.254
    2CYS    SC1  236   0.094   4.380   0.979
    3TYR     BB  237   0.214   4.833   1.180
    3TYR    SC1  238   0.023   5.041   1.307
    3TYR    SC2  239   7.842   5.187   1.170
    3TYR    SC3  240   7.849   5.199   1.440
    1TYR     BB  241   6.193   1.971   2.083
    1TYR    SC1  242   6.146   1.747   1.881
    1TYR    SC2  243   6.238   1.515   1.780
    1TYR    SC3  244   5.997   1.609   1.703
    2CYS     BB  245   5.996   1.872   2.336
    2CYS    SC1  246   6.186   1.855   2.573
    3TYR     BB  247   5.823   1.614   2.234
    3TYR    SC1  248   5.674   1.722   1.990
    3TYR    SC2  249   5.551   1.681   1.753
    3TYR    SC3  250   5.611   1.932   1.833
    1TYR     BB  251   2.770   6.358   3.910
    1TYR    SC1  252   2.796   6.592   4.114
    1TYR    SC2  253   2.855   6.617   4.376
    1TYR    SC3  254   2.898   6.824   4.208
    2CYS     BB  255   2.820   6.097   4.170
    2CYS    SC1  256   2.602   6.157   4.380
    3TYR     BB  257   3.096   6.124   4.329
    3TYR    SC1  258   3.221   6.393   4.249
    3TYR    SC2  259   3.340   6.633   4.280
    3TYR    SC3  260   3.241   6.562   4.039
    1TYR     BB  261   3.682   0.493   5.015
    1TYR    SC1  262   3.763   0.785   5.028
    1TYR    SC2  263   3.797   0.989   4.855
    1TYR    SC3  264   3.939   0.982   5.084
    2CYS     BB  265   3.341   0.487   5.022
    2CYS    SC1  266   3.297   0.279   5.249
    3TYR     BB  267   3.169   0.750   5.015
    3TYR    SC1  268   3.345   1.008   5.035
    3TYR    SC2  269   3.432   1.247   4.945
    3TYR    SC3  270   3.512   1.157   5.187
    1TYR     BB  271   5.630   7.902   2.218
    1TYR    SC1  272   5.451   0.149   2.190
    1TYR    SC2  273   5.267   0.308   2.308
    1TYR    SC3  274   5.466   0.417   2.162
    2CYS     BB  275   5.748   7.972   2.537
    2CYS    SC1  276   5.850   7.699   2.624
    3TYR     BB  277   5.516   0.138   2.707
    3TYR    SC1  278   5.554   0.435   2.619
    3TYR    SC2  279   5.532   0.703   2.646
    3TYR    SC3  280   5.737   0.598   2.505
    1TYR     BB  281   5.401   4.189   5.403
    1TYR    SC1  282   5.261   4.339   5.180
    1TYR    SC2  283   5.037   4.488   5.147
    1TYR    SC3  284   5.188   4.421   4.933
    2CYS     BB  285   5.477   4.470   5.602
    2CYS    SC1  286   5.677   4.346   5.798
    3TYR     BB  287   5.432   4.743   5.420
    3TYR    SC1  288   5.604   4.676   5.177
    3TYR    SC2  289   5.832   4.699   5.035
    3TYR    SC3  290   5.615   4.585   4.923
    1TYR     BB  291   5.511   1.662   3.068
    1TYR    SC1  292   5.575   1.479   2.819
    1TYR    SC2  293   5.549   1.402   2.562
    1TYR    SC3  294   5.564   1.216   2.758
    2CYS     BB  295   5.331   1.414   3.236
    2CYS    SC1  296   5.294   1.529   3.511
    3TYR     BB  297   5.151   1.261   3.033
    3TYR    SC1  298   5.125   1.456   2.780
    3TYR    SC2  299   5.138   1.558   2.530
    3TYR    SC3  300   5.136   1.723   2.744
    1TYR     BB  301   4.679   6.585   2.566
    1TYR    SC1  302   4.419   6.739   2.507
    1TYR    SC2  303   4.173   6.724   2.398
    1TYR    SC3  304   4.204   6.823   2.647
    2CYS     BB  305   4.530   6.338   2.754
    2CYS    SC1  306   4.386   6.199   2.521
    3TYR     BB  307   4.415   6.513   2.996
    3TYR    SC1  308   4.207   6.357   3.151
    3TYR    SC2  309   3.953   6.266   3.163
    3TYR    SC3  310   4.128   6.203   3.358
    1TYR     BB  311   3.410   2.638   4.836
    1TYR    SC1  312   3.332   2.350   4.725
    1TYR    SC2  313   3.276   2.195   4.512
    1TYR    SC3  314   3.333   2.081   4.750
    2CYS     BB  315   3.334   2.669   5.167
    2CYS    SC1  316   3.447   2.907   5.327
    3TYR     BB  317   3.247   2.434   5.371
    3TYR    SC1  318   3.090   2.251   5.195
    3TYR    SC2  319   3.010   2.038   5.051
    3TYR    SC3  320   2.937   2.286   4.976
    1TYR     BB  321   7.270   0.074   5.750
    1TYR    SC1  322   7.411   0.009   6.022
    1TYR    SC2  323   7.520   7.854   6.213
    1TYR    SC3  324   7.509   0.121   6.246
    2CYS     BB  325   7.396   0.421   5.733
    2CYS    SC1  326   7.449   0.436   5.432
    3TYR     BB  327   7.635   0.517   5.921
    3TYR    SC1  328   7.700   0.824   5.934
    3TYR    SC2  329   7.778   1.011   6.112
    3TYR    SC3  330   7.766   1.072   5.849
    1TYR     BB  331   7.437   5.183   4.651
    1TYR    SC1  332   7.415   5.456   4.783
    1TYR    SC2  333   7.518   5.687   4.878
    1TYR    SC3  334   7.278   5.600   4.965
    2CYS     BB  335   7.287   5.245   4.341
    2CYS    SC1  336   7.413   5.020   4.177
    3TYR     BB  337   7.091   5.471   4.266
    3TYR    SC1  338   7.092   5.682   4.496
    3TYR    SC2  339   7.183   5.891   4.641
    3TYR    SC3  340   6.938   5.788   4.691
    1TYR     BB  341   2.609   5.248   0.220
    1TYR    SC1  342   2.478   4.985   0.273
    1TYR    SC2  343   2.286   4.833   0.160
    1TYR    SC3  344   2.288   4.872   0.427
    2CYS     BB  345   2.375   5.394   0.021
    2CYS    SC1  346   2.290   5.651   0.148
    3TYR     BB  347   2.180   5.319   7.786
    3TYR    SC1  348   2.045   5.581   7.673
    3TYR    SC2  349   1.990   5.843   7.643
    3TYR    SC3  350   2.062   5.695   7.429
    1TYR     BB  351   4.365   4.207   1.818
    1TYR    SC1  352   4.372   4.497   1.732
    1TYR    SC2  353   4.354   4.689   1.542
    1TYR    SC3  354   4.231   4.723   1.780
    2CYS     BB  355   4.550   4.015   1.676
    2CYS    SC1  356   4.728   3.888   1.894
    3TYR     BB  357   4.733   4.148   1.446
    3TYR    SC1  358   4.829   4.410   1.578
    3TYR    SC2  359   4.803   4.674   1.632
    3TYR    SC3  360   5.037   4.547   1.682
    1TYR     BB  361   6.862   4.629   1.613
    1TYR    SC1  362   6.588   4.509   1.553
    1TYR    SC2  363   6.386   4.415   1.705
    1TYR    SC3  364   6.336   4.510   1.457
    2CYS     BB  365   6.811   4.615   1.964
    2CYS    SC1  366   7.089   4.595   2.058
    3TYR     BB  367   6.555   4.770   2.036
    3TYR    SC1  368   6.398   4.591   2.228
    3TYR    SC2  369   6.437   4.357   2.355
    3TYR    SC3  370   6.244   4.525   2.439
    1TYR     BB  371   7.024   1.503   5.526
    1TYR    SC1  372   7.299   1.431   5.403
    1TYR    SC2  373   7.563   1.405   5.454
    1TYR    SC3  374   7.464   1.335   5.212
    2CYS     BB  375   6.853   1.264   5.634
    2CYS    SC1  376   6.598   1.362   5.768
    3TYR     BB  377   6.873   0.951   5.605
    3TYR    SC1  378   6.580   0.853   5.552
    3TYR    SC2  379   6.360   0.739   5.446
    3TYR    SC3  380   6.341   0.882   5.674
    1TYR     BB  381   6.014   4.164   3.653
    1TYR    SC1  382   5.750   4.107   3.527
    1TYR    SC2  383   5.563   3.957   3.402
    1TYR    SC3  384   5.591   4.218   3.339
    2CYS     BB  385   6.118   3.872   3.754
    2CYS    SC1  386   6.065   3.892   4.058
    3TYR     BB  387   5.959   3.601   3.615
    3TYR    SC1  388   5.676   3.660   3.738
    3TYR    SC2  389   5.409   3.679   3.766
    3TYR    SC3  390   5.571   3.843   3.906
    1TYR     BB  391   6.411   7.217   0.195
    1TYR    SC1  392   6.351   7.114   7.904
    1TYR    SC2  393   6.471   7.072   7.665
    1TYR    SC3  394   6.205   7.119   7.677
    2CYS     BB  395   6.183   7.104   0.387
    2CYS    SC1  396   6.236   7.191   0.680
    3TYR     BB  397   5.955   6.969   0.284
    3TYR    SC1  398   5.911   6.909   7.988
    3TYR    SC2  399   5.813   6.719   7.823
    3TYR    SC3  400   5.786   6.980   7.759
    1TYR     BB  401   1.720   5.999   2.633
    1TYR    SC1  402   1.810   5.718   2.611
    1TYR    SC2  403   1.828   5.517   2.432
    1TYR    SC3  404   1.955   5.498   2.669
    2CYS     BB  405   1.588   6.075   2.323
    2CYS    SC1  406   1.317   6.185   2.416
    3TYR     BB  407   1.604   5.909   2.045
    3TYR    SC1  408   1.763   5.658   2.003
    3TYR    SC2  409   1.993   5.575   1.890
    3TYR    SC3  410   1.818   5.394   1.988
    1TYR     BB  411   3.871   5.335   4.657
    1TYR    SC1  412   4.107   5.413   4.854
    1TYR    SC2  413   4.323   5.396   5.016
    1TYR    SC3  414   4.194   5.632   4.988
    2CYS     BB  415   3.987   5.403   4.373
    2CYS    SC1  416   3.850   5.270   4.132
    3TYR     BB  417   4.261   5.490   4.377
    3TYR    SC1  418   4.405   5.645   4.580
    3TYR    SC2  419   4.592   5.675   4.773
    3TYR    SC3  420   4.444   5.887   4.694
    1TYR     BB  421   5.667   3.541   6.923
    1TYR    SC1  422   5.919   3.356   6.850
    1TYR    SC2  423   6.041   3.116   6.878
    1TYR    SC3  424   6.101   3.274   6.667
    2CYS     BB  425   5.581   3.668   6.660
    2CYS    SC1  426   5.660   3.962   6.650
    3TYR     BB  427   5.750   3.520   6.391
    3TYR    SC1  428   5.683   3.229   6.486
    3TYR    SC2  429   5.599   3.081   6.696
    3TYR    SC3  430   5.600   2.975   6.447
    1TYR     BB  431   3.384   2.752   6.349
    1TYR    SC1  432   3.570   2.925   6.522
    1TYR    SC2  433   3.777   3.099   6.507
    1TYR    SC3  434   3.623   3.090   6.729
    2CYS     BB  435   3.470   2.828   6.026
    2CYS    SC1  436   3.307   2.704   5.801
    3TYR     BB  437   3.625   3.090   6.014
    3TYR    SC1  438   3.459   3.272   6.219
    3TYR    SC2  439   3.486   3.455   6.415
    3TYR    SC3  440   3.282   3.279   6.422
    1TYR     BB  441   0.112   0.162   7.088
    1TYR    SC1  442   0.341   0.343   7.198
    1TYR    SC2  443   0.393   0.598   7.269
    1TYR    SC3  444   0.538   0.396   7.375
    2CYS     BB  445   7.839   0.279   7.212
    2CYS    SC1  446   7.743   0.069   7.424
    3TYR     BB  447   7.915   0.556   7.407
    3TYR    SC1  448   0.096   0.385   7.608
    3TYR    SC2  449   0.074   0.216   7.817
    3TYR    SC3  450   0.234   0.153   7.609
    1TYR     BB  451   3.387   3.763   3.149
    1TYR    SC1  452   3.556   3.752   3.407
    1TYR    SC2  453   3.591   3.881   3.642
    1TYR    SC3  454   3.701   3.637   3.604
    2CYS     BB  455   3.096   3.866   3.275
    2CYS    SC1  456   2.853   3.756   3.129
    3TYR     BB  457   3.049   3.907   3.609
    3TYR    SC1  458   3.210   3.675   3.724
    3TYR    SC2  459   3.362   3.539   3.901
    3TYR    SC3  460   3.298   3.427   3.664
    1TYR     BB  461   1.755   1.299   5.103
    1TYR    SC1  462   1.733   1.516   5.324
    1TYR    SC2  463   1.745   1.760   5.438
    1TYR    SC3  464   1.530   1.603   5.478
    2CYS     BB  465   1.425   1.361   4.984
    2CYS    SC1  466   1.478   1.392   4.693
    3TYR     BB  467   1.253   1.637   5.063
    3TYR    SC1  468   1.080   1.698   5.301
    3TYR    SC2  469   0.892   1.864   5.401
    3TYR    SC3  470   1.001   1.673   5.558
    1TYR     BB  471   5.116   0.439   6.393
    1TYR    SC1  472   5.294   0.693   6.358
    1TYR    SC2  473   5.400   0.919   6.461
    1TYR    SC3  474   5.404   0.877   6.194
    2CYS     BB  475   5.301   0.192   6.494
    2CYS    SC1  476   5.206   0.074   6.765
    3TYR     BB  477   5.534   0.079   6.391
    3TYR    SC1  478   5.602   7.875   6.171
    3TYR    SC2  479   5.620   7.611   6.119
    3TYR    SC3  480   5.615   7.788   5.916
    1TYR     BB  481   4.283   4.643   0.353
    1TYR    SC1  482   4.225   4.378   0.210
    1TYR    SC2  483   4.229   4.123   0.299
    1TYR    SC3  484   4.047   4.199   0.114
    2CYS     BB  485   4.143   4.528   0.665
    2CYS    SC1  486   4.389   4.372   0.768
    3TYR     BB  487   3.886   4.304   0.634
    3TYR    SC1  488   3.978   4.074   0.816
    3TYR    SC2  489   4.173   3.888   0.811
    3TYR    SC3  490   4.015   3.910   1.028
    1TYR     BB  491   4.793   6.902   6.988
    1TYR    SC1  492   4.647   6.678   6.853
    1TYR    SC2  493   4.617   6.414   6.805
    1TYR    SC3  494   4.467   6.594   6.671
    2CYS     BB  495   4.643   6.856   7.309
    2CYS    SC1  496   4.784   7.049   7.508
    3TYR     BB  497   4.511   6.551   7.334
    3TYR    SC1  498   4.285   6.469   7.131
    3TYR    SC2  499   4.031   6.379   7.153
    3TYR    SC3  500   4.135   6.430   6.909
    1TYR     BB  501   1.097   1.483   4.406
    1TYR    SC1  502   0.954   1.410   4.670
    1TYR    SC2  503   0.952   1.265   4.898
    1TYR    SC3  504   0.719   1.344   4.786
    2CYS     BB  505   0.930   1.704   4.266
    2CYS    SC1  506   0.799   1.595   4.007
    3TYR     BB  507   0.715   1.907   4.421
    3TYR    SC1  508   0.677   1.804   4.716
    3TYR    SC2  509   0.790   1.757   4.957
    3TYR    SC3  510   0.527   1.816   4.940
    1TYR     BB  511   1.064   1.949   3.483
    1TYR    SC1  512   0.998   1.654   3.546
    1TYR    SC2  513   0.834   1.446   3.493
    1TYR    SC3  514   1.096   1.402   3.541
    2CYS     BB  515   1.042   1.901   3.130
    2CYS    SC1  516   0.746   1.956   3.080
    3TYR     BB  517   1.060   1.554   3.036
    3TYR    SC1  518   1.319   1.590   2.887
    3TYR    SC2  519   1.528   1.521   2.731
    3TYR    SC3  520   1.522   1.764   2.848
    1TYR     BB  521   5.641   2.641   2.823
    1TYR    SC1  522   5.570   2.646   3.121
    1TYR    SC2  523   5.417   2.526   3.308
    1TYR    SC3  524   5.549   2.754   3.368
    2CYS     BB  525   5.938   2.659   2.676
    2CYS    SC1  526   5.853   2.743   2.392
    3TYR     BB  527   6.132   2.691   2.932
    3TYR    SC1  528   6.009   2.489   3.133
    3TYR    SC2  529   5.835   2.302   3.220
    3TYR    SC3  530   5.922   2.494   3.388
    1TYR     BB  531   2.116   1.314   6.540
    1TYR    SC1  532   2.237   1.368   6.254
    1TYR    SC2  533   2.301   1.574   6.092
    1TYR    SC3  534   2.366   1.322   6.021
    2CYS     BB  535   2.242   1.563   6.715
    2CYS    SC1  536   2.194   1.501   7.011
    3TYR     BB  537   2.410   1.796   6.597
    3TYR    SC1  538   2.619   1.706   6.386
    3TYR    SC2  539   2.744   1.802   6.166
    3TYR    SC3  540   2.731   1.535   6.209
    1TYR     BB  541   1.989   6.670   5.318
    1TYR    SC1  542   2.092   6.399   5.190
    1TYR    SC2  543   2.224   6.170   5.136
    1TYR    SC3  544   2.186   6.353   4.941
    2CYS     BB  545   1.888   6.788   4.980
    2CYS    SC1  546   1.617   6.914   5.045
    3TYR     BB  547   1.786   6.561   4.739
    3TYR    SC1  548   1.909   6.643   4.473
    3TYR    SC2  549   1.863   6.572   4.216
    3TYR    SC3  550   1.993   6.802   4.272
    1TYR     BB  551   1.117   5.956   7.114
    1TYR    SC1  552   1.126   6.237   6.993
    1TYR    SC2  553   1.063   6.498   6.968
    1TYR    SC3  554   1.322   6.422   6.977
    2CYS     BB  555   1.274   6.050   7.424
    2CYS    SC1  556   1.068   5.970   7.641
    3TYR     BB  557   1.352   6.385   7.509
    3TYR    SC1  558   1.369   6.334   7.826
    3TYR    SC2  559   1.243   6.288   0.060
    3TYR    SC3  560   1.452   6.133   7.987
    1TYR     BB  561   4.805   1.829   1.158
    1TYR    SC1  562   4.702   1.749   1.422
    1TYR    SC2  563   4.508   1.725   1.608
    1TYR    SC3  564   4.724   1.564   1.617
    2CYS     BB  565   4.985   1.552   1.079
    2CYS    SC1  566   5.269   1.655   1.040
    3TYR     BB  567   4.854   1.285   1.107
    3TYR    SC1  568   4.757   1.165   1.373
    3TYR    SC2  569   4.593   0.975   1.471
    3TYR    SC3  570   4.783   1.084   1.629
    1TYR     BB  571   4.992   6.063   6.680
    1TYR    SC1  572   4.906   6.088   6.973
    1TYR    SC2  573   4.879   6.257   7.182
    1TYR    SC3  574   4.923   5.994   7.226
    2CYS     BB  575   4.732   5.975   6.522
    2CYS    SC1  576   4.829   5.908   6.238
    3TYR     BB  577   4.413   6.007   6.619
    3TYR    SC1  578   4.375   6.037   6.924
    3TYR    SC2  579   4.475   6.051   7.174
    3TYR    SC3  580   4.219   5.977   7.136
    1TYR     BB  581   5.785   2.109   0.386
    1TYR    SC1  582   5.798   1.926   0.139
    1TYR    SC2  583   5.704   1.878   7.890
    1TYR    SC3  584   5.955   1.804   7.956
    2CYS     BB  585   5.528   2.300   0.324
    2CYS    SC1  586   5.389   2.353   0.579
    3TYR     BB  587   5.382   2.236   0.072
    3TYR    SC1  588   5.572   2.335   7.838
    3TYR    SC2  589   5.570   2.482   7.612
    3TYR    SC3  590   5.798   2.362   7.693
    1TYR     BB  591   6.718   1.368   3.645
    1TYR    SC1  592   6.654   1.140   3.444
    1TYR    SC2  593   6.532   0.901   3.413
    1TYR    SC3  594   6.738   0.968   3.253
    2CYS     BB  595   6.436   1.516   3.696
    2CYS    SC1  596   6.306   1.452   3.962
    3TYR     BB  597   6.266   1.613   3.444
    3TYR    SC1  598   6.320   1.403   3.229
    3TYR    SC2  599   6.304   1.158   3.117
    3TYR    SC3  600   6.499   1.328   3.041
    1TYR     BB  601   6.366   6.257   6.289
    1TYR    SC1  602   6.292   6.487   6.082
    1TYR    SC2  603   6.243   6.583   5.834
    1TYR    SC3  604   6.201   6.739   6.050
    2CYS     BB  605   6.064   6.245   6.435
    2CYS    SC1  606   5.873   6.007   6.456
    3TYR     BB  607   5.876   6.504   6.365
    3TYR    SC1  608   5.947   6.719   6.566
    3TYR    SC2  609   6.065   6.807   6.792
    3TYR    SC3  610   6.047   6.970   6.577
    1TYR     BB  611   3.448   5.157   6.901
    1TYR    SC1  612   3.279   5.130   6.636
    1TYR    SC2  613   3.269   5.060   6.375
    1TYR    SC3  614   3.045   5.054   6.526
    2CYS     BB  615   3.338   4.898   7.061
    2CYS    SC1  616   3.571   4.688   7.040
    3TYR     BB  617   2.996   4.907   7.011
    3TYR    SC1  618   2.943   5.217   6.954
    3TYR    SC2  619   2.794   5.441   6.975
    3TYR    SC3  620   3.032   5.450   6.848
    1TYR     BB  621   4.335   7.617   1.931
    1TYR    SC1  622   4.318   7.710   1.637
    1TYR    SC2  623   4.381   7.915   1.473
    1TYR    SC3  624   4.174   7.753   1.413
    2CYS     BB  625   4.656   7.669   2.023
    2CYS    SC1  626   4.682   7.610   2.328
    3TYR     BB  627   4.838   7.687   1.761
    3TYR    SC1  628   4.842   7.906   1.544
    3TYR    SC2  629   5.025   0.083   1.454
    3TYR    SC3  630   4.769   0.100   1.372
    1TYR     BB  631   0.295   6.314   5.971
    1TYR    SC1  632   0.276   6.477   6.236
    1TYR    SC2  633   0.332   6.473   6.500
    1TYR    SC3  634   0.266   6.706   6.379
    2CYS     BB  635   0.612   6.423   5.858
    2CYS    SC1  636   0.608   6.316   5.566
    3TYR     BB  637   0.693   6.677   6.025
    3TYR    SC1  638   0.755   6.689   6.329
    3TYR    SC2  639   0.754   6.643   6.595
    3TYR    SC3  640   0.896   6.849   6.494
    1TYR     BB  641   6.734   3.957   5.781
    1TYR    SC1  642   6.627   4.193   5.594
    1TYR    SC2  643   6.748   4.398   5.467
    1TYR    SC3  644   6.493   4.333   5.406
    2CYS     BB  645   6.636   3.974   6.100
    2CYS    SC1  646   6.733   3.723   6.256
    3TYR     BB  647   6.431   4.185   6.181
    3TYR    SC1  648   6.338   4.341   5.948
    3TYR    SC2  649   6.174   4.378   5.737
    3TYR    SC3  650   6.374   4.553   5.785
    1TYR     BB  651   5.280   1.587   7.133
    1TYR    SC1  652   5.561   1.685   7.055
    1TYR    SC2  653   5.750   1.671   6.863
    1TYR    SC3  654   5.755   1.872   7.043
    2CYS     BB  655   5.236   1.388   6.841
    2CYS    SC1  656   5.286   1.099   6.929
    3TYR     BB  657   5.327   1.514   6.608
    3TYR    SC1  658   5.197   1.718   6.430
    3TYR    SC2  659   5.193   1.827   6.183
    3TYR    SC3  660   5.088   1.962   6.392
    1TYR     BB  661   0.341   4.168   5.661
    1TYR    SC1  662   0.110   4.052   5.838
    1TYR    SC2  663   7.940   3.845   5.878
    1TYR    SC3  664   0.030   3.989   6.089
    2CYS     BB  665   0.462   3.875   5.495
    2CYS    SC1  666   0.571   3.992   5.229
    3TYR     BB  667   0.394   3.553   5.420
    3TYR    SC1  668   0.213   3.387   5.609
    3TYR    SC2  669   0.035   3.353   5.809
    3TYR    SC3  670   0.220   3.162   5.759
    1TYR     BB  671   7.594   5.603   6.275
    1TYR    SC1  672   7.287   5.581   6.226
    1TYR    SC2  673   7.044   5.660   6.312
    1TYR    SC3  674   7.065   5.494   6.100
    2CYS     BB  675   7.690   5.848   6.087
    2CYS    SC1  676   7.952   5.770   5.941
    3TYR     BB  677   7.419   6.027   6.017
    3TYR    SC1  678   7.198   5.882   5.852
    3TYR    SC2  679   7.003   5.974   5.689
    3TYR    SC3  680   7.059   5.710   5.698
    1TYR     BB  681   2.503   4.055   0.443
    1TYR    SC1  682   2.606   4.069   0.147
    1TYR    SC2  683   2.809   4.097   7.972
    1TYR    SC3  684   2.565   4.019   7.885
    2CYS     BB  685   2.686   3.814   0.572
    2CYS    SC1  686   2.850   3.889   0.824
    3TYR     BB  687   2.860   3.660   0.383
    3TYR    SC1  688   2.857   3.639   0.082
    3TYR    SC2  689   2.889   3.681   7.817
    3TYR    SC3  690   2.863   3.429   7.912
    1TYR     BB  691   1.465   4.256   7.321
    1TYR    SC1  692   1.277   4.491   7.286
    1TYR    SC2  693   1.228   4.755   7.311
    1TYR    SC3  694   1.089   4.609   7.132
    2CYS     BB  695   1.423   4.097   7.591
    2CYS    SC1  696   1.620   3.863   7.606
    3TYR     BB  697   1.234   4.265   7.785
    3TYR    SC1  698   1.347   4.558   7.738
    3TYR    SC2  699   1.339   4.828   7.744
    3TYR    SC3  700   1.569   4.698   7.800
    1TYR     BB  701   1.475   5.934   1.075
    1TYR    SC1  702   1.539   6.232   1.067
    1TYR    SC2  703   1.750   6.399   1.090
    1TYR    SC3  704   1.499   6.491   1.132
    2CYS     BB  705   1.413   5.812   0.778
    2CYS    SC1  706   1.119   5.724   0.774
    3TYR     BB  707   1.445   5.951   0.466
    3TYR    SC1  708   1.395   6.245   0.532
    3TYR    SC2  709   1.285   6.486   0.477
    3TYR    SC3  710   1.466   6.462   0.676
    1TYR     BB  711   2.610   0.830   2.681
    1TYR    SC1  712   2.783   0.813   2.936
    1TYR    SC2  713   2.899   0.685   3.144
    1TYR    SC3  714   3.028   0.888   3.021
    2CYS     BB  715   2.415   0.565   2.694
    2CYS    SC1  716   2.138   0.611   2.814
    3TYR     BB  717   2.564   0.327   2.843
    3TYR    SC1  718   2.857   0.371   2.787
    3TYR    SC2  719   3.096   0.290   2.883
    3TYR    SC3  720   3.079   0.516   2.737
    1TYR     BB  721   2.387   3.762   2.237
    1TYR    SC1  722   2.207   3.852   2.469
    1TYR    SC2  723   1.985   3.826   2.620
    1TYR    SC3  724   2.153   4.034   2.661
    2CYS     BB  725   2.634   3.589   2.371
    2CYS    SC1  726   2.882   3.689   2.235
    3TYR     BB  727   2.672   3.567   2.686
    3TYR    SC1  728   2.428   3.676   2.834
    3TYR    SC2  729   2.190   3.609   2.944
    3TYR    SC3  730   2.350   3.789   3.067
    1TYR     BB  731   7.041   4.784   3.297
    1TYR    SC1  732   7.241   5.012   3.230
    1TYR    SC2  733   7.411   5.090   3.036
    1TYR    SC3  734   7.236   5.267   3.139
    2CYS     BB  735   6.978   4.710   2.960
    2CYS    SC1  736   7.234   4.543   2.903
    3TYR     BB  737   6.992   4.984   2.786
    3TYR    SC1  738   7.213   4.966   2.595
    3TYR    SC2  739   7.425   4.824   2.508
    3TYR    SC3  740   7.264   4.948   2.330
    1TYR     BB  741   2.100   1.219   3.815
    1TYR    SC1  742   2.022   1.094   4.081
    1TYR    SC2  743   1.924   0.890   4.228
    1TYR    SC3  744   2.112   1.054   4.333
    2CYS     BB  745   2.406   1.113   3.770
    2CYS    SC1  746   2.433   1.042   3.473
    3TYR     BB  747   2.522   0.928   4.014
    3TYR    SC1  748   2.658   1.124   4.196
    3TYR    SC2  749   2.824   1.329   4.138
    3TYR    SC3  750   2.734   1.294   4.391
    1TYR     BB  751   3.909   1.757   6.734
    1TYR    SC1  752   4.002   1.486   6.618
    1TYR    SC2  753   4.159   1.277   6.688
    1TYR    SC3  754   3.933   1.235   6.546
    2CYS     BB  755   3.779   1.629   7.027
    2CYS    SC1  756   3.637   1.833   7.195
    3TYR     BB  757   3.944   1.425   7.142
    3TYR    SC1  758   3.879   1.138   7.050
    3TYR    SC2  759   3.723   0.927   7.114
    3TYR    SC3  760   3.855   0.930   6.879
    1TYR     BB  761   5.992   5.685   2.006
    1TYR    SC1  762   6.138   5.616   2.266
    1TYR    SC2  763   6.154   5.649   2.533
    1TYR    SC3  764   6.370   5.565   2.394
    2CYS     BB  765   5.824   5.418   1.927
    2CYS    SC1  766   5.723   5.441   1.647
    3TYR     BB  767   5.928   5.179   2.036
    3TYR    SC1  768   6.034   4.963   1.851
    3TYR    SC2  769   6.098   4.702   1.878
    3TYR    SC3  770   6.016   4.796   1.639
    1TYR     BB  771   5.208   7.071   0.554
    1TYR    SC1  772   5.451   6.890   0.545
    1TYR    SC2  773   5.566   6.694   0.400
    1TYR    SC3  774   5.644   6.737   0.655
    2CYS     BB  775   5.243   7.381   0.571
    2CYS    SC1  776   5.130   7.482   0.303
    3TYR     BB  777   5.372   7.502   0.871
    3TYR    SC1  778   5.426   7.226   1.013
    3TYR    SC2  779   5.402   7.082   1.241
    3TYR    SC3  780   5.391   6.958   1.001
    1TYR     BB  781   5.966   3.812   2.307
    1TYR    SC1  782   5.842   3.521   2.260
    1TYR    SC2  783   5.860   3.253   2.294
    1TYR    SC3  784   5.633   3.362   2.197
    2CYS     BB  785   5.978   3.862   2.607
    2CYS    SC1  786   6.059   4.145   2.713
    3TYR     BB  787   6.112   3.655   2.774
    3TYR    SC1  788   6.053   3.368   2.717
    3TYR    SC2  789   6.167   3.126   2.677
    3TYR    SC3  790   5.912   3.142   2.765
    1TYR     BB  791   2.743   7.766   5.867
    1TYR    SC1  792   2.705   7.470   5.925
    1TYR    SC2  793   2.533   7.273   5.857
    1TYR    SC3  794   2.689   7.247   6.076
    2CYS     BB  795   3.058   7.849   5.891
    2CYS    SC1  796   3.199   7.599   6.015
    3TYR     BB  797   3.070   0.120   6.101
    3TYR    SC1  798   2.936   7.957   6.343
    3TYR    SC2  799   2.776   7.899   6.554
    3TYR    SC3  800   2.826   7.711   6.366
    1TYR     BB  801   3.331   5.241   0.763
    1TYR    SC1  802   3.412   5.084   0.525
    1TYR    SC2  803   3.375   4.952   0.293
    1TYR    SC3  804   3.572   5.135   0.314
    2CYS     BB  805   3.087   5.157   0.955
    2CYS    SC1  806   3.063   5.316   1.210
    3TYR     BB  807   3.020   4.852   0.933
    3TYR    SC1  808   3.023   4.812   0.622
    3TYR    SC2  809   3.060   4.662   0.400
    3TYR    SC3  810   2.933   4.900   0.383
    1TYR     BB  811   5.190   7.771   7.908
    1TYR    SC1  812   5.355   7.525   7.810
    1TYR    SC2  813   5.538   7.369   7.687
    1TYR    SC3  814   5.275   7.308   7.671
    2CYS     BB  815   4.875   7.612   7.821
    2CYS    SC1  816   4.701   7.591   0.071
    3TYR     BB  817   4.855   7.585   7.499
    3TYR    SC1  818   5.130   7.711   7.398
    3TYR    SC2  819   5.283   7.878   7.252
    3TYR    SC3  820   5.392   7.658   7.364
    1TYR     BB  821   2.227   3.021   7.501
    1TYR    SC1  822   2.133   3.164   7.761
    1TYR    SC2  823   2.010   3.362   7.898
    1TYR    SC3  824   2.181   3.196   0.025
    2CYS     BB  825   2.014   2.772   7.472
    2CYS    SC1  826   2.036   2.602   7.218
    3TYR     BB  827   1.786   2.699   7.680
    3TYR    SC1  828   1.777   2.901   7.920
    3TYR    SC2  829   1.663   3.107   0.052
    3TYR    SC3  830   1.836   2.944   0.180
    1TYR     BB  831   0.580   2.180   1.067
    1TYR    SC1  832   0.753   1.926   1.091
    1TYR    SC2  833   0.715   1.663   1.142
    1TYR    SC3  834   0.912   1.742   0.975
    2CYS     BB  835   0.267   2.008   1.093
    2CYS    SC1  836   0.297   1.789   0.876
    3TYR     BB  837   0.269   1.882   1.381
    3TYR    SC1  838   0.309   1.570   1.350
    3TYR    SC2  839   0.217   1.332   1.439
    3TYR    SC3  840   0.456   1.347   1.314
    1TYR     BB  841   4.240   4.378   6.332
    1TYR    SC1  842   3.951   4.400   6.433
    1TYR    SC2  843   3.681   4.398   6.445
    1TYR    SC3  844   3.827   4.399   6.672
    2CYS     BB  845   4.370   4.369   6.021
    2CYS    SC1  846   4.656   4.247   6.017
    3TYR     BB  847   4.208   4.235   5.768
    3TYR    SC1  848   3.938   4.147   5.865
    3TYR    SC2  849   3.752   4.223   6.046
    3TYR    SC3  850   3.727   3.987   5.917
    1TYR     BB  851   3.130   3.046   7.730
    1TYR    SC1  852   3.351   2.983   7.927
    1TYR    SC2  853   3.561   3.004   0.095
    1TYR    SC3  854   3.438   2.766   0.062
    2CYS     BB  855   2.882   2.860   7.892
    2CYS    SC1  856   2.612   3.000   7.862
    3TYR     BB  857   2.926   2.834   0.220
    3TYR    SC1  858   3.080   2.610   0.345
    3TYR    SC2  859   3.092   2.461   0.570
    3TYR    SC3  860   3.278   2.430   0.377
    1TYR     BB  861   6.752   1.927   6.473
    1TYR    SC1  862   6.915   1.790   6.236
    1TYR    SC2  863   6.950   1.649   6.008
    1TYR    SC3  864   7.159   1.696   6.172
    2CYS     BB  865   6.540   2.110   6.349
    2CYS    SC1  866   6.385   2.271   6.561
    3TYR     BB  867   6.546   2.208   6.069
    3TYR    SC1  868   6.708   2.041   5.875
    3TYR    SC2  869   6.720   1.857   5.678
    3TYR    SC3  870   6.921   2.035   5.709
    1TYR     BB  871   4.411   3.503   4.772
    1TYR    SC1  872   4.684   3.600   4.658
    1TYR    SC2  873   4.920   3.727   4.624
    1TYR    SC3  874   4.812   3.587   4.420
    2CYS     BB  875   4.389   3.202   4.565
    2CYS    SC1  876   4.101   3.147   4.457
    3TYR     BB  877   4.578   3.163   4.302
    3TYR    SC1  878   4.430   3.195   4.039
    3TYR    SC2  879   4.458   3.359   3.826
    3TYR    SC3  880   4.216   3.255   3.886
    1TYR     BB  881   4.450   1.462   4.532
    1TYR    SC1  882   4.499   1.570   4.243
    1TYR    SC2  883   4.622   1.745   4.079
    1TYR    SC3  884   4.374   1.657   4.020
    2CYS     BB  885   4.752   1.423   4.644
    2CYS    SC1  886   4.805   1.534   4.925
    3TYR     BB  887   4.972   1.474   4.451
    3TYR    SC1  888   4.963   1.408   4.152
    3TYR    SC2  889   5.127   1.301   3.966
    3TYR    SC3  890   4.964   1.505   3.900
    1TYR     BB  891   7.628   5.718   1.462
    1TYR    SC1  892   7.406   5.929   1.403
    1TYR    SC2  893   7.302   6.169   1.468
    1TYR    SC3  894   7.289   6.081   1.213
    2CYS     BB  895   7.801   5.701   1.202
    2CYS    SC1  896   0.079   5.607   1.276
    3TYR     BB  897   7.707   5.878   0.983
    3TYR    SC1  898   7.415   5.786   0.888
    3TYR    SC2  899   7.171   5.863   0.801
    3TYR    SC3  900   7.254   5.609   0.764
    1TYR     BB  901   2.381   6.011   5.771
    1TYR    SC1  902   2.474   6.142   6.042
    1TYR    SC2  903   2.645   6.327   6.140
    1TYR    SC3  904   2.529   6.149   6.307
    2CYS     BB  905   2.352   6.302   5.603
    2CYS    SC1  906   2.105   6.421   5.739
    3TYR     BB  907   2.561   6.437   5.411
    3TYR    SC1  908   2.798   6.514   5.588
    3TYR    SC2  909   3.052   6.603   5.606
    3TYR    SC3  910   2.923   6.519   5.827
    1TYR     BB  911   0.779   3.967   2.136
    1TYR    SC1  912   0.503   4.023   2.277
    1TYR    SC2  913   0.271   4.154   2.320
    1TYR    SC3  914   0.295   3.894   2.391
    2CYS     BB  915   0.913   3.741   2.333
    2CYS    SC1  916   0.965   3.473   2.196
    3TYR     BB  917   0.707   3.651   2.582
    3TYR    SC1  918   0.501   3.461   2.481
    3TYR    SC2  919   0.400   3.210   2.477
    3TYR    SC3  920   0.234   3.422   2.456
    1TYR     BB  921   2.397   6.561   7.599
    1TYR    SC1  922   2.546   6.590   7.862
    1TYR    SC2  923   2.656   6.447   0.064
    1TYR    SC3  924   2.627   6.715   0.088
    2CYS     BB  925   2.498   6.250   7.479
    2CYS    SC1  926   2.238   6.177   7.324
    3TYR     BB  927   2.786   6.164   7.638
    3TYR    SC1  928   2.932   6.432   7.682
    3TYR    SC2  929   3.006   6.661   7.804
    3TYR    SC3  930   3.175   6.539   7.633
    1TYR     BB  931   5.883   5.628   7.635
    1TYR    SC1  932   5.627   5.464   7.698
    1TYR    SC2  933   5.558   5.243   7.836
    1TYR    SC3  934   5.398   5.461   7.841
    2CYS     BB  935   5.954   5.720   7.943
    2CYS    SC1  936   6.248   5.687   7.994
    3TYR     BB  937   5.807   5.542   0.193
    3TYR    SC1  938   5.541   5.421   0.277
    3TYR    SC2  939   5.366   5.215   0.268
    3TYR    SC3  940   5.353   5.394   0.469
    1TYR     BB  941   1.062   5.773   4.897
    1TYR    SC1  942   0.773   5.750   4.789
    1TYR    SC2  943   0.541   5.614   4.819
    1TYR    SC3  944   0.560   5.809   4.633
    2CYS     BB  945   1.080   6.046   5.052
    2CYS    SC1  946   1.325   6.032   5.221
    3TYR     BB  947   0.844   6.211   5.135
    3TYR    SC1  948   0.573   6.112   5.025
    3TYR    SC2  949   0.346   5.968   5.049
    3TYR    SC3  950   0.366   6.156   4.857
    1TYR     BB  951   6.576   3.088   1.088
    1TYR    SC1  952   6.841   2.914   1.120
    1TYR    SC2  953   6.977   2.756   1.291
    1TYR    SC3  954   7.109   2.940   1.143
    2CYS     BB  955   6.290   2.949   1.076
    2CYS    SC1  956   6.120   3.046   1.315
    3TYR     BB  957   6.227   2.675   0.943
    3TYR    SC1  958   6.474   2.507   0.928
    3TYR    SC2  959   6.717   2.487   1.045
    3TYR    SC3  960   6.616   2.278   0.906
    1TYR     BB  961   5.038   2.892   7.003
    1TYR    SC1  962   4.934   2.627   6.873
    1TYR    SC2  963   4.710   2.498   6.797
    1TYR    SC3  964   4.943   2.363   6.817
    2CYS     BB  965   5.090   3.073   6.730
    2CYS    SC1  966   5.193   3.350   6.803
    3TYR     BB  967   5.098   2.951   6.467
    3TYR    SC1  968   4.971   2.679   6.418
    3TYR    SC2  969   4.755   2.528   6.360
    3TYR    SC3  970   5.001   2.417   6.362
    1TYR     BB  971   0.824   2.090   5.904
    1TYR    SC1  972   1.090   2.240   5.908
    1TYR    SC2  973   1.180   2.487   5.849
    1TYR    SC3  974   1.338   2.315   5.983
    2CYS     BB  975   0.701   2.279   6.187
    2CYS    SC1  976   0.401   2.233   6.157
    3TYR     BB  977   0.844   2.539   6.256
    3TYR    SC1  978   1.150   2.580   6.301
    3TYR    SC2  979   1.311   2.772   6.200
    3TYR    SC3  980   1.414   2.576   6.355
    1TYR     BB  981   1.170   7.355   2.149
    1TYR    SC1  982   1.147   7.438   2.444
    1TYR    SC2  983   1.117   7.658   2.596
    1TYR    SC3  984   1.190   7.425   2.710
    2CYS     BB  985   0.935   7.513   1.992
    2CYS    SC1  986   1.065   7.689   1.773
    3TYR     BB  987   0.749   7.691   2.184
    3TYR    SC1  988   0.696   7.502   2.425
    3TYR    SC2  989   0.715   7.425   2.683
    3TYR    SC3  990   0.746   7.244   2.485
    1TYR     BB  991   6.553   6.881   1.611
    1TYR    SC1  992   6.304   7.076   1.560
    1TYR    SC2  993   6.155   7.208   1.378
    1TYR    SC3  994   6.078   7.202   1.637
    2CYS     BB  995   6.527   6.694   1.333
    2CYS    SC1  996   6.820   6.633   1.243
    3TYR     BB  997   6.402   6.882   1.076
    3TYR    SC1  998   6.587   6.843   0.829
    3TYR    SC2  999   6.664   6.935   0.587
    3TYR    SC3 1000   6.676   6.671   0.642
    4W        W 1001   0.623   1.717   2.160
    5W        W 1002   4.111   5.936   1.545
    6W        W 1003   3.192   4.456   7.969
    7W        W 1004   6.039   0.809   4.006
    8W        W 1005   3.534   7.320   2.089
    9W        W 1006   3.300   6.028   3.237
   10W        W 1007   3.474   7.394   5.201
   11W        W 1008   3.660   6.774   2.590
   12W        W 1009   3.816   2.794   5.639
   13W        W 1010   6.446   2.632   3.344
   14W        W 1011   2.970   7.255   5.068
   15W        W 1012   7.061   3.557   3.633
   16W        W 1013   5.821   6.499   3.225
   17W        W 1014   7.068   3.206   1.955
   18W        W 1015   4.468   7.094   6.573
   19W        W 1016   3.682   1.996   1.083
   20W        W 1017   4.699   4.331   4.044
   21W        W 1018   3.397   5.674   3.641
   22W        W 1019   2.684   6.125   3.394
   23W        W 1020   5.443   4.789   0.509
   24W        W 1021   3.922   5.252   1.134
   25W        W 1022   0.675   3.064   4.135
   26W        W 1023   2.742   7.726   4.992
   27W        W 1024   1.531   4.280   3.991
   28W        W 1025   0.639   6.750   3.761
   29W        W 1026   2.859   1.107   4.856
   30W        W 1027   1.926   7.297   5.005
   31W        W 1028   7.413   0.513   2.857
   32W        W 1029   0.544   4.492   4.158
   33W        W 1030   6.856   4.585   2.493
   34W        W 1031   7.279   6.897   6.059
   35W        W 1032   3.403   1.825   1.471
   36W        W 1033   4.417   0.570   4.459
   37W        W 1034   3.925   6.290   1.241
   38W        W 1035   3.370   4.213   2.910
   39W        W 1036   3.661   3.321   0.495
   40W        W 1037   2.794   7.157   2.752
   41W        W 1038   5.284   1.025   3.590
   42W        W 1039   7.722   2.898   3.763
   43W        W 1040   4.322   2.356   6.213
   44W        W 1041   4.252   1.616   7.508
   45W        W 1042   1.010   5.409   2.080
   46W        W 1043   2.728   6.798   0.583
   47W        W 1044   3.429   0.461   1.584
   48W        W 1045   1.752   0.823   3.722
   49W        W 1046   1.871   2.513   4.024
   50W        W 1047   4.012   7.228   2.937
   51W        W 1048   1.583   7.061   1.989
   52W        W 1049   1.925   6.205   3.868
   53W        W 1050   5.002   5.846   0.586
   54W        W 1051   4.227   5.272   2.685
   55W        W 1052   2.138   4.585   2.665
   56W        W 1053   6.236   1.705   4.934
   57W        W 1054   0.722   1.341   7.670
   58W        W 1055   2.375   7.197   1.273
   59W        W 1056   6.552   3.683   3.591
   60W        W 1057   3.434   3.556   4.448
   61W        W 1058   3.033   4.160   0.407
   62W        W 1059   3.589   3.694   4.944
   63W        W 1060   6.531   6.466   2.607
   64W        W 1061   3.020   1.185   6.935
   65W        W 1062   6.223   1.219   0.600
   66W        W 1063   5.837   5.234   6.918
   67W        W 1064   2.339   2.339   1.895
   68W        W 1065   5.835   5.011   0.269
   69W        W 1066   5.833   5.479   6.491
   70W        W 1067   1.733   1.776   1.443
   71W        W 1068   7.894   1.008   0.078
   72W        W 1069   5.089   5.971   4.019
   73W        W 1070   2.060   2.227   6.644
   74W        W 1071   5.058   2.705   1.726
   75W        W 1072   5.737   7.497   1.288
   76W        W 1073   1.233   4.425   2.791
   77W        W 1074   7.123   7.301   5.216
   78W        W 1075   1.123   0.568   0.573
   79W        W 1076   1.162   1.922   4.663
   80W        W 1077   1.797   0.672   6.822
   81W        W 1078   4.079   4.042   4.298
   82W        W 1079   2.392   5.276   5.999
   83W        W 1080   0.235   6.568   1.179
   84W        W 1081   5.717   6.979   2.496
   85W        W 1082   6.052   5.735   5.426
   86W        W 1083   5.290   4.058   4.593
   87W        W 1084   0.404   3.675   5.949
   88W        W 1085   2.361   3.629   0.201
   89W        W 1086   5.333   5.175   4.324
   90W        W 1087   1.435   0.591   1.028
   91W        W 1088   5.932   4.224   1.571
   92W        W 1089   2.367   2.040   2.294
   93W        W 1090   6.501   0.272   2.294
   94W        W 1091   0.702   4.044   3.968
   95W        W 1092   2.307   4.525   6.640
   96W        W 1093   6.520   4.990   1.590
   97W        W 1094   2.290   4.715   5.387
   98W        W 1095   0.395   5.300   1.552
   99W        W 1096   7.280   3.430   1.521
  100W        W 1097   3.507   4.549   4.724
  101W        W 1098   3.757   5.396   5.665
  102W        W 1099   0.305   3.549   3.314
  103W        W 1100   5.761   6.824   1.461
  104W        W 1101   7.367   0.140   7.089
  105W        W 1102   3.559   5.049   4.903
  106W        W 1103   0.282   6.765   1.660
  107W        W 1104   4.044   1.140   7.572
  108W        W 1105   0.456   3.250   6.191
  109W        W 1106   1.039   2.957   1.000
  110W        W 1107   1.217   6.841   1.335
  111W        W 1108   2.243   0.492   5.967
  112W        W 1109   4.126   2.337   4.194
  113W        W 1110   0.887   0.720   0.123
  114W        W 1111   2.868   6.794   6.868
  115W        W 1112   2.503   0.553   1.144
  116W        W 1113   3.648   4.642   3.028
  117W        W 1114   3.006   4.451   1.696
  118W        W 1115   6.447   3.011   5.327
  119W        W 1116   4.089   4.916   4.795
  120W        W 1117   3.558   0.972   2.058
  121W        W 1118   2.798   2.831   2.253
  122W        W 1119   4.416   2.731   7.598
  123W        W 1120   7.735   5.726   3.576
  124W        W 1121   4.816   0.024   6.407
  125W        W 1122   4.153   2.871   6.297
  126W        W 1123   7.198   5.465   2.669
  127W        W 1124   6.159   7.941   5.993
  128W        W 1125   0.830   5.331   3.464
  129W        W 1126   4.391   5.705   2.465
  130W        W 1127   3.614   6.891   0.894
  131W        W 1128   3.660   6.479   4.775
  132W        W 1129   3.852   3.814   0.416
  133W        W 1130   5.818   6.965   3.006
  134W        W 1131   3.128   4.660   2.961
  135W        W 1132   0.968   5.377   2.618
  136W        W 1133   2.597   3.728   1.773
  137W        W 1134   3.435   4.715   2.574
  138W        W 1135   4.487   5.271   2.219
  139W        W 1136   7.238   5.465   1.649
  140W        W 1137   4.795   3.168   1.612
  141W        W 1138   3.929   3.084   1.320
  142W        W 1139   2.477   6.822   3.782
  143W        W 1140   5.087   7.268   7.188
  144W        W 1141   3.543   5.647   0.267
  145W        W 1142   6.096   6.105   2.812
  146W        W 1143   0.228   4.933   5.884
  147W        W 1144   0.104   0.885   0.609
  148W        W 1145   0.563   4.673   2.119
  149W        W 1146   3.482   7.001   3.914
  150W        W 1147   6.946   2.714   7.657
  151W        W 1148   4.220   3.222   2.110
  152W        W 1149   5.575   5.816   0.654
  153W        W 1150   0.564   0.810   6.768
  154W        W 1151   2.689   4.571   1.255
  155W        W 1152   0.554   5.711   6.353
  156W        W 1153   1.429   0.708   6.470
  157W        W 1154   0.656   6.276   1.295
  158W        W 1155   6.092   3.130   0.116
  159W        W 1156   1.488   4.951   6.891
  160W        W 1157   5.751   0.994   0.526
  161W        W 1158   2.966   5.889   1.266
  162W        W 1159   2.408   5.713   2.551
  163W        W 1160   7.424   6.893   6.579
  164W        W 1161   3.982   1.655   4.351
  165W        W 1162   3.861   3.394   0.026
  166W        W 1163   0.995   6.960   2.826
  167W        W 1164   3.613   3.671   0.841
  168W        W 1165   7.589   0.759   0.402
  169W        W 1166   1.557   6.448   5.189
  170W        W 1167   2.850   6.602   1.891
  171W        W 1168   6.643   5.281   1.165
  172W        W 1169   6.202   1.395   0.125
  173W        W 1170   7.064   5.172   7.031
  174W        W 1171   4.159   0.525   3.529
  175W        W 1172   5.103   2.303   7.665
  176W        W 1173   4.616   4.040   6.478
  177W        W 1174   3.159   4.899   4.595
  178W        W 1175   5.898   3.428   4.687
  179W        W 1176   3.186   7.212   2.437
  180W        W 1177   1.679   6.686   1.632
  181W        W 1178   3.648   4.410   4.243
  182W        W 1179   3.106   1.639   1.114
  183W        W 1180   1.454   3.654   2.312
  184W        W 1181   6.143   4.108   1.089
  185W        W 1182   7.313   4.175   1.974
  186W        W 1183   4.428   0.763   1.911
  187W        W 1184   2.647   3.370   0.826
  188W        W 1185   1.468   2.666   2.537
  189W        W 1186   0.792   2.281   4.857
  190W        W 1187   2.694   0.366   4.562
  191W        W 1188   2.260   6.168   7.956
  192W        W 1189   0.438   2.128   1.816
  193W        W 1190   5.572   6.165   2.813
  194W        W 1191   1.633   0.405   4.963
  195W        W 1192   5.278   7.304   5.323
  196W        W 1193   6.555   2.997   7.920
  197W        W 1194   5.800   2.437   4.996
  198W        W 1195   5.998   7.274   4.749
  199W        W 1196   3.629   3.917   4.123
  200W        W 1197   2.325   4.737   0.929
  201W        W 1198   0.990   4.816   0.455
  202W        W 1199   3.420   2.674   1.668
  203W        W 1200   1.178   3.481   2.709
  204W        W 1201   7.236   0.954   6.762
  205W        W 1202   3.848   3.274   5.442
  206W        W 1203   2.349   4.880   7.296
  207W        W 1204   4.600   6.372   6.264
  208W        W 1205   0.958   0.157   2.209
  209W        W 1206   6.375   1.074   6.138
  210W        W 1207   5.816   0.388   4.779
  211W        W 1208   5.793   7.707   6.599
  212W        W 1209   1.219   6.737   1.822
  213W        W 1210   2.678   6.327   4.903
  214W        W 1211   2.509   2.806   3.845
  215W        W 1212   1.156   7.305   1.152
  216W        W 1213   0.601   7.255   3.649
  217W        W 1214   1.232   3.450   6.808
  218W        W 1215   3.454   0.858   1.070
  219W        W 1216   7.187   2.179   7.291
  220W        W 1217   3.587   1.887   5.937
  221W        W 1218   1.350   4.768   3.146
  222W        W 1219   3.809   1.428   3.948
  223W        W 1220   1.562   4.344   1.913
  224W        W 1221   5.788   2.690   0.141
  225W        W 1222   2.981   5.924   4.847
  226W        W 1223   1.823   5.203   1.502
  227W        W 1224   3.857   4.263   3.794
  228W        W 1225   2.826   2.205   2.092
  229W        W 1226   3.051   6.217   5.262
  230W        W 1227   7.724   5.530   4.376
  231W        W 1228   6.795   1.929   0.579
  232W        W 1229   3.206   1.903   6.285
  233W        W 1230   0.075   1.887   6.374
  234W        W 1231   1.541   4.301   5.211
  235W        W 1232   1.812   4.567   0.974
  236W        W 1233   1.302   2.881   7.658
  237W        W 1234   1.652   3.700   0.083
  238W        W 1235   2.667   5.574   4.025
  239W        W 1236   6.345   3.506   4.943
  240W        W 1237   5.152   0.538   5.894
  241W        W 1238   2.483   6.776   5.874
  242W        W 1239   1.680   3.309   3.699
  243W        W 1240   2.154   2.971   4.200
  244W        W 1241   1.433   5.023   0.213
  245W        W 1242   6.505   4.352   2.859
  246W        W 1243   1.818   4.229   3.573
  247W        W 1244   6.793   7.795   2.718
  248W        W 1245   1.344   7.825   2.181
  249W        W 1246   3.808   4.495   1.087
  250W        W 1247   3.131   3.909   4.159
  251W        W 1248   4.797   6.234   1.319
  252W        W 1249   3.615   0.936   3.900
  253W        W 1250   2.837   7.294   1.491
  254W        W 1251   1.991   4.090   0.914
  255W        W 1252   2.544   3.185   5.251
  256W        W 1253   1.122   4.904   2.700
  257W        W 1254   2.873   1.257   3.617
  258W        W 1255   5.304   6.804   1.667
  259W        W 1256   5.559   3.480   2.693
  260W        W 1257   3.645   6.441   6.547
  261W        W 1258   5.342   5.047   3.168
  262W        W 1259   7.595   5.590   3.016
  263W        W 1260   5.529   0.943   4.127
  264W        W 1261   5.886   4.662   6.688
  265W        W 1262   1.929   5.202   0.220
  266W        W 1263   0.992   0.561   3.369
  267W        W 1264   1.015   4.391   1.966
  268W        W 1265   6.966   5.346   3.557
  269W        W 1266   7.563   5.345   5.282
  270W        W 1267   4.231   5.697   3.435
  271W        W 1268   5.079   4.589   7.662
  272W        W 1269   1.657   3.338   1.445
  273W        W 1270   1.807   4.110   5.693
  274W        W 1271   6.516   7.368   2.510
  275W        W 1272   1.325   5.565   3.468
  276W        W 1273   4.759   3.428   7.877
  277W        W 1274   6.405   5.900   5.058
  278W        W 1275   3.122   4.430   7.100
  279W        W 1276   4.052   3.897   1.561
  280W        W 1277   5.533   5.964   7.774
  281W        W 1278   2.741   4.640   3.313
  282W        W 1279   4.364   0.749   3.983
  283W        W 1280   4.387   0.854   5.313
  284W        W 1281   3.757   3.555   1.298
  285W        W 1282   1.520   5.518   0.201
  286W        W 1283   1.247   2.405   3.680
  287W        W 1284   2.499   2.643   2.944
  288W        W 1285   3.200   7.467   0.398
  289W        W 1286   5.686   6.019   5.626
  290W        W 1287   1.857   1.558   0.990
  291W        W 1288   1.834   1.833   6.864
  292W        W 1289   0.165   4.930   2.358
  293W        W 1290   6.505   5.501   3.395
  294W        W 1291   2.856   4.068   6.880
  295W        W 1292   0.815   5.001   1.755
  296W        W 1293   0.794   5.466   1.041
  297W        W 1294   4.607   7.089   4.789
  298W        W 1295   0.088   4.518   2.023
  299W        W 1296   4.916   0.858   6.655
  300W        W 1297   2.952   2.141   3.556
  301W        W 1298   6.327   0.956   1.060
  302W        W 1299   0.448   4.062   3.320
  303W        W 1300   2.354   2.145   6.239
  304W        W 1301   3.055   3.952   1.732
  305W        W 1302   4.701   6.806   0.989
  306W        W 1303   4.860   3.051   0.729
  307W        W 1304   6.852   4.145   1.736
  308W        W 1305   2.630   2.640   5.959
  309W        W 1306   6.014   0.882   6.455
  310W        W 1307   0.930   4.132   7.339
  311W        W 1308   1.917   0.883   6.371
  312W        W 1309   1.213   7.091   4.803
  313W        W 1310   6.284   6.609   7.723
  314W        W 1311   6.661   6.623   4.666
  315W        W 1312   4.446   4.341   6.869
  316W        W 1313   2.652   4.571   2.708
  317W        W 1314   5.467   3.836   2.367
  318W        W 1315   6.546   4.668   3.250
  319W        W 1316   4.861   5.429   1.462
  320W        W 1317   1.854   1.366   2.409
  321W        W 1318   2.249   5.340   2.255
  322W        W 1319   4.270   0.807   3.102
  323W        W 1320   6.908   7.043   4.826
  324W        W 1321   2.200   6.805   3.293
  325W        W 1322   6.856   1.392   7.507
  326W        W 1323   1.696   4.224   0.034
  327W        W 1324   5.452   4.988   3.866
  328W        W 1325   0.556   2.070   6.614
  329W        W 1326   2.893   1.168   0.458
  330W        W 1327   6.701   5.361   5.756
  331W        W 1328   2.958   5.693   7.423
  332W        W 1329   6.953   3.430   1.071
  333W        W 1330   4.752   1.308   6.835
  334W        W 1331   6.534   3.752   1.049
  335W        W 1332   6.797   6.124   1.282
  336W        W 1333   0.990   4.918   2.208
  337W        W 1334   4.951   2.350   3.168
  338W        W 1335   3.402   5.853   2.317
  339W        W 1336   1.326   2.051   5.541
  340W        W 1337   1.299   4.129   2.371
  341W        W 1338   2.455   1.610   4.671
  342W        W 1339   6.019   1.404   6.272
  343W        W 1340   3.503   1.918   2.788
  344W        W 1341   7.194   5.021   5.110
  345W        W 1342   5.905   0.995   5.433
  346W        W 1343   3.191   3.909   7.213
  347W        W 1344   6.258   7.192   7.175
  348W        W 1345   5.605   6.475   7.458
  349W        W 1346   0.252   2.925   1.249
  350W        W 1347   2.624   5.068   1.271
  351W        W 1348   5.493   2.734   2.029
  352W        W 1349   5.022   5.789   7.745
  353W        W 1350   0.887   4.575   1.491
  354W        W 1351   4.580   7.341   7.078
  355W        W 1352   2.367   5.773   6.639
  356W        W 1353   5.801   5.494   1.153
  357W        W 1354   6.297   3.433   3.962
  358W        W 1355   4.944   5.207   6.905
  359W        W 1356   5.137   3.533   0.695
  360W        W 1357   4.356   3.021   0.712
  361W        W 1358   0.908   5.388   6.214
  362W        W 1359   4.594   1.758   2.085
  363W        W 1360   6.717   3.138   4.909
  364W        W 1361   4.180   5.087   5.713
  365W        W 1362   4.864   1.706   0.605
  366W        W 1363   4.241   3.744   2.068
  367W        W 1364   2.959   7.941   5.413
  368W        W 1365   6.233   2.422   2.322
  369W        W 1366   2.705   5.499   4.998
  370W        W 1367   2.694   4.571   0.039
  371W        W 1368   2.249   3.093   0.647
  372W        W 1369   3.123   3.481   4.878
  373W        W 1370   5.834   6.014   7.321
  374W        W 1371   5.410   1.055   5.291
  375W        W 1372   5.137   3.750   2.762
  376W        W 1373   4.427   4.784   3.438
  377W        W 1374   6.166   5.042   4.946
  378W        W 1375   4.154   0.868   6.286
  379W        W 1376   0.637   5.941   0.925
  380W        W 1377   2.189   5.211   1.055
  381W        W 1378   2.313   4.315   2.243
  382W        W 1379   1.152   0.163   2.686
  383W        W 1380   5.620   7.247   6.497
  384W        W 1381   0.882   3.104   2.539
  385W        W 1382   1.704   4.754   3.534
  386W        W 1383   6.979   6.320   0.854
  387W        W 1384   6.994   1.758   1.622
  388W        W 1385   3.615   1.290   3.508
  389W        W 1386   0.404   3.281   1.611
  390W        W 1387   0.904   0.854   5.180
  391W        W 1388   5.128   6.674   7.296
  392W        W 1389   5.233   4.700   2.123
  393W        W 1390   1.240   4.546   3.592
  394W        W 1391   5.148   7.728   2.181
  395W        W 1392   1.795   2.989   3.265
  396W        W 1393   2.833   4.196   7.467
  397W        W 1394   1.331   7.182   3.177
  398W        W 1395   3.628   2.334   5.666
  399W        W 1396   0.401   6.085   0.480
  400W        W 1397   3.053   6.907   3.175
  401W        W 1398   2.436   3.548   7.680
  402W        W 1399   7.127   1.905   5.245
  403W        W 1400   6.303   3.420   7.168
  404W        W 1401   3.875   1.859   4.960
  405W        W 1402   6.005   1.949   7.467
  406W        W 1403   7.916   5.391   3.918
  407W        W 1404   3.566   2.030   0.471
  408W        W 1405   6.254   4.776   5.353
  409W        W 1406   0.191   6.700   6.920
  410W        W 1407   1.324   1.702   3.919
  411W        W 1408   7.587   2.020   2.221
  412W        W 1409   2.788   2.081   7.187
  413W        W 1410   2.718   1.281   3.116
  414W        W 1411   4.668   3.321   6.946
  415W        W 1412   5.169   3.133   1.983
  416W        W 1413   3.493   6.483   3.030
  417W        W 1414   7.391   7.783   6.690
  418W        W 1415   7.046   1.498   6.620
  419W        W 1416   0.865   2.242   1.493
  420W        W 1417   6.650   5.009   6.665
  421W        W 1418   4.350   6.938   3.257
  422W        W 1419   1.679   4.958   5.942
  423W        W 1420   6.020   0.131   6.436
  424W        W 1421   5.045   2.882   5.172
  425W        W 1422   6.314   6.395   4.973
  426W        W 1423   2.786   3.245   6.530
  427W        W 1424   7.842   4.711   1.610
  428W        W 1425   6.056   4.420   4.088
  429W        W 1426   4.190   6.006   4.249
  430W        W 1427   4.336   6.785   1.939
  431W        W 1428   5.974   1.841   3.052
  432W        W 1429   1.029   1.143   7.318
  433W        W 1430   1.271   1.021   1.305
  434W        W 1431   3.329   4.672   7.511
  435W        W 1432   5.415   5.130   0.899
  436W        W 1433   3.173   0.445   3.639
  437W        W 1434   2.510   0.503   1.664
  438W        W 1435   6.695   2.408   0.420
  439W        W 1436   1.299   0.515   6.928
  440W        W 1437   4.941   7.245   0.967
  441W        W 1438   1.879   5.981   5.925
  442W        W 1439   3.407   4.115   6.799
  443W        W 1440   5.715   3.330   5.505
  444W        W 1441   4.947   3.467   3.952
  445W        W 1442   2.235   1.730   1.299
  446W        W 1443   5.776   7.167   6.966
  447W        W 1444   7.742   3.087   3.286
  448W        W 1445   0.495   1.076   7.283
  449W        W 1446   3.342   1.768   2.332
  450W        W 1447   6.916   4.043   3.679
  451W        W 1448   6.641   6.253   5.341
  452W        W 1449   7.558   0.604   6.934
  453W        W 1450   4.262   1.697   3.092
  454W        W 1451   6.787   5.853   2.588
  455W        W 1452   0.603   6.447   0.811
  456W        W 1453   7.839   7.585   6.524
  457W        W 1454   2.040   7.339   2.090
  458W        W 1455   1.836   3.122   5.456
  459W        W 1456   4.697   2.415   7.941
  460W        W 1457   3.139   2.109   4.029
  461W        W 1458   0.223   1.662   1.835
  462W        W 1459   6.120   7.589   3.265
  463W        W 1460   2.797   3.262   2.004
  464W        W 1461   6.597   2.468   5.619
  465W        W 1462   2.790   3.165   3.610
  466W        W 1463   2.619   3.613   4.984
  467W        W 1464   6.121   2.584   5.451
  468W        W 1465   1.408   3.130   0.673
  469W        W 1466   1.381   1.208   2.238
  470W        W 1467   6.704   1.593   5.159
  471W        W 1468   0.797   4.160   4.459
  472W        W 1469   0.244   3.028   3.277
  473W        W 1470   4.349   6.812   6.157
  474W        W 1471   3.913   2.819   7.783
  475W        W 1472   6.602   2.872   0.635
  476W        W 1473   1.346   5.636   2.393
  477W        W 1474   4.434   3.516   1.668
  478W        W 1475   3.049   7.437   5.552
  479W        W 1476   4.306   4.498   4.991
  480W        W 1477   5.878   7.633   1.865
  481W        W 1478   4.509   4.051   2.355
  482W        W 1479   6.495   7.547   5.974
  483W        W 1480   5.353   2.799   1.322
  484W        W 1481   2.163   5.565   1.406
  485W        W 1482   0.886   4.037   1.593
  486W        W 1483   6.429   6.687   0.205
  487W        W 1484   6.575   3.886   3.041
  488W        W 1485   2.390   2.790   5.518
  489W        W 1486   2.555   5.337   7.408
  490W        W 1487   2.196   2.419   5.817
  491W        W 1488   5.487   3.195   5.053
  492W        W 1489   5.451   1.942   2.388
  493W        W 1490   6.201   2.561   3.809
  494W        W 1491   4.642   1.040   4.318
  495W        W 1492   3.527   3.147   4.860
  496W        W 1493   3.025   1.690   2.835
  497W        W 1494   0.168   5.749   0.790
  498W        W 1495   5.110   6.477   2.114
  499W        W 1496   6.736   1.820   3.425
  500W        W 1497   3.295   3.469   2.075
  501W        W 1498   2.815   0.460   5.267
  502W        W 1499   2.104   2.022   4.734
  503W        W 1500   1.294   4.601   1.102
  504W        W 1501   3.146   7.056   0.690
  505W        W 1502   7.049   0.156   3.052
  506W        W 1503   0.827   3.762   6.881
  507W        W 1504   5.161   4.587   4.035
  508W        W 1505   1.378   2.964   5.158
  509W        W 1506   7.300   7.637   7.182
  510W        W 1507   7.487   6.280   0.764
  511W        W 1508   5.899   6.061   5.042
  512W        W 1509   1.373   7.768   3.997
  513W        W 1510   6.097   7.621   0.444
  514W        W 1511   5.755   6.046   0.245
  515W        W 1512   4.304   3.027   1.652
  516W        W 1513   4.816   2.834   1.230
  517W        W 1514   7.016   7.909   6.361
  518W        W 1515   6.051   1.172   1.453
  519W        W 1516   0.488   3.183   4.594
  520W        W 1517   6.326   5.052   4.094
  521W        W 1518   4.103   0.932   1.579
  522W        W 1519   5.405   4.419   7.256
  523W        W 1520   1.389   4.764   6.310
  524W        W 1521   3.964   1.591   5.785
  525W        W 1522   6.735   5.448   1.630
  526W        W 1523   4.749   7.557   0.613
  527W        W 1524   1.654   6.454   6.569
  528W        W 1525   7.223   4.677   6.270
  529W        W 1526   7.806   5.077   2.713
  530W        W 1527   0.553   3.266   2.946
  531W        W 1528   1.996   5.852   6.955
  532W        W 1529   0.891   3.694   1.200
  533W        W 1530   2.969   0.916   5.469
  534W        W 1531   5.340   3.689   1.187
  535W        W 1532   0.240   4.185   6.556
  536W        W 1533   3.309   6.533   6.163
  537W        W 1534   0.090   6.180   6.840
  538W        W 1535   5.491   4.548   1.470
  539W        W 1536   6.073   5.227   7.887
  540W        W 1537   4.627   5.411   7.767
  541W        W 1538   7.530   1.892   7.010
  542W        W 1539   7.418   2.071   2.708
  543W        W 1540   3.401   4.109   0.813
  544W        W 1541   0.514   4.280   1.815
  545W        W 1542   0.630   4.572   5.901
  546W        W 1543   1.744   0.454   6.122
  547W        W 1544   2.584   1.921   2.739
  548W        W 1545   7.415   5.862   1.906
  549W        W 1546   5.458   0.709   0.901
  550W        W 1547   0.143   1.986   6.891
  551W        W 1548   4.923   3.672   1.509
  552W        W 1549   2.733   6.972   4.703
  553W        W 1550   2.088   2.928   5.891
  554W        W 1551   2.488   0.845   4.604
  555W        W 1552   4.161   2.528   0.666
  556W        W 1553   4.978   5.490   6.459
  557W        W 1554   1.079   0.084   3.678
  558W        W 1555   4.620   5.736   5.262
  559W        W 1556   2.660   0.235   5.725
  560W        W 1557   7.238   4.718   5.746
  561W        W 1558   0.088   5.493   6.436
  562W        W 1559   3.990   7.107   0.633
  563W        W 1560   0.263   5.595   4.266
  564W        W 1561   2.520   0.912   5.733
  565W        W 1562   2.422   6.786   5.072
  566W        W 1563   2.163   3.097   2.943
  567W        W 1564   1.963   5.202   7.341
  568W        W 1565   4.296   1.294   5.560
  569W        W 1566   4.740   5.383   2.651
  570W        W 1567   7.399   2.909   1.621
  571W        W 1568   2.868   6.027   5.697
  572W        W 1569   1.343   1.481   1.075
  573W        W 1570   2.049   4.307   5.273
  574W        W 1571   3.319   7.422   1.625
  575W        W 1572   4.145   3.990   6.706
  576W        W 1573   1.596   6.989   4.014
  577W        W 1574   3.496   4.706   6.121
  578W        W 1575   5.677   1.479   1.310
  579W        W 1576   3.308   1.164   6.313
  580W        W 1577   6.658   4.512   4.684
  581W        W 1578   5.038   1.245   6.293
  582W        W 1579   5.091   6.629   1.240
  583W        W 1580   2.324   3.298   3.829
  584W        W 1581   5.283   7.022   6.816
  585W        W 1582   1.294   5.279   5.913
  586W        W 1583   1.572   2.226   4.657
  587W        W 1584   6.872   0.871   7.401
  588W        W 1585   2.804   4.578   6.636
  589W        W 1586   6.146   1.569   7.122
  590W        W 1587   6.111   0.271   5.186
  591W        W 1588   6.024   3.049   6.175
  592W        W 1589   6.569   4.609   4.174
  593W        W 1590   2.436   6.617   7.090
  594W        W 1591   2.963   5.908   3.729
  595W        W 1592   3.189   2.511   3.305
  596W        W 1593   6.093   3.041   0.619
  597W        W 1594   0.280   7.533   6.831
  598W        W 1595   0.179   1.653   5.920
  599W        W 1596   7.453   4.025   2.844
  600W        W 1597   2.305   0.839   6.745
  601W        W 1598   5.015   0.148   1.940
  602W        W 1599   3.471   2.649   6.980
  603W        W 1600   4.216   0.560   4.942
  604W        W 1601   1.084   5.535   7.384
  605W        W 1602   6.169   3.205   7.619
  606W        W 1603   4.828   5.279   5.011
  607W        W 1604   1.730   7.180   5.468
  608W        W 1605   3.794   3.886   7.055
  609W        W 1606   5.849   3.646   5.133
  610W        W 1607   1.592   5.026   1.094
  611W        W 1608   5.625   5.966   4.066
  612W        W 1609   6.182   6.467   4.488
  613W        W 1610   6.873   0.736   7.903
  614W        W 1611   4.712   4.463   7.310
  615W        W 1612   5.458   5.573   3.186
  616W        W 1613   2.859   3.632   4.488
  617W        W 1614   3.214   4.730   5.703
  618W        W 1615   7.355   2.408   6.884
  619W        W 1616   3.812   5.111   6.105
  620W        W 1617   6.849   0.659   3.730
  621W        W 1618   1.033   3.275   3.142
  622W        W 1619   0.987   2.779   7.152
  623W        W 1620   0.169   4.482   6.126
  624W        W 1621   3.805   2.101   4.536
  625W        W 1622   6.602   1.606   6.863
  626W        W 1623   4.866   4.902   4.334
  627W        W 1624   6.384   5.295   5.363
  628W        W 1625   3.215   1.242   0.839
  629W        W 1626   2.512   2.363   4.689
  630W        W 1627   4.830   6.614   7.763
  631W        W 1628   5.236   4.947   4.974
  632W        W 1629   5.525   4.970   1.758
  633W        W 1630   4.198   5.938   2.894
  634W        W 1631   1.256   1.007   0.796
  635W        W 1632   3.580   0.961   1.549
  636W        W 1633   4.104   6.260   4.685
  637W        W 1634   3.103   1.685   4.330
  638W        W 1635   7.369   0.925   5.522
  639W        W 1636   1.219   7.166   4.302
  640W        W 1637   0.053   5.808   3.108
  641W        W 1638   2.068   3.889   7.856
  642W        W 1639   4.655   7.476   1.333
  643W        W 1640   5.403   5.798   6.472
  644W        W 1641   0.759   0.916   1.474
  645W        W 1642   6.615   6.230   5.833
  646W        W 1643   1.690   5.257   3.753
  647W        W 1644   2.107   3.074   1.553
  648W        W 1645   1.341   3.249   6.331
  649W        W 1646   4.963   5.060   2.342
  650W        W 1647   4.494   2.651   2.436
  651W        W 1648   5.737   7.283   0.599
  652W        W 1649   1.281   5.523   6.873
  653W        W 1650   0.306   6.238   1.664
  654W        W 1651   1.784   5.187   4.756
  655W        W 1652   5.052   3.983   4.138
  656W        W 1653   2.988   4.685   6.158
  657W        W 1654   1.704   5.920   3.199
  658W        W 1655   7.050   0.342   6.121
  659W        W 1656   4.305   6.696   4.772
  660W        W 1657   2.977   5.059   5.052
  661W        W 1658   2.980   2.728   2.718
  662W        W 1659   3.135   0.146   2.390
  663W        W 1660   6.206   0.703   2.340
  664W        W 1661   5.254   0.987   1.779
  665W        W 1662   1.315   5.897   3.939
  666W        W 1663   4.271   4.478   2.232
  667W        W 1664   5.356   5.880   3.605
  668W        W 1665   3.151   3.497   0.763
  669W        W 1666   3.388   5.253   5.346
  670W        W 1667   3.284   6.229   2.649
  671W        W 1668   7.135   2.560   4.489
  672W        W 1669   5.427   3.622   4.799
  673W        W 1670   3.123   6.288   0.110
  674W        W 1671   4.420   0.370   5.550
  675W        W 1672   4.714   3.440   2.108
  676W        W 1673   1.937   1.107   3.363
  677W        W 1674   6.489   4.165   3.936
  678W        W 1675   7.864   3.643   2.208
  679W        W 1676   4.560   2.618   5.193
  680W        W 1677   5.833   5.213   4.152
  681W        W 1678   3.015   3.710   6.543
  682W        W 1679   6.487   0.972   1.561
  683W        W 1680   4.445   2.744   0.257
  684W        W 1681   3.847   1.097   2.611
  685W        W 1682   6.461   4.170   3.433
  686W        W 1683   5.407   6.625   2.904
  687W        W 1684   4.276   4.443   7.628
  688W        W 1685   1.511   5.697   7.727
  689W        W 1686   1.637   4.434   6.037
  690W        W 1687   6.977   3.157   2.868
  691W        W 1688   4.690   6.270   4.123
  692W        W 1689   5.649   4.500   3.785
  693W        W 1690   7.029   3.142   0.655
  694W        W 1691   7.184   0.585   3.345
  695W        W 1692   3.067   4.342   2.524
  696W        W 1693   6.865   3.037   3.393
  697W        W 1694   6.145   5.036   6.455
  698W        W 1695   0.128   5.486   2.197
  699W        W 1696   4.759   5.888   2.794
  700W        W 1697   4.933   2.005   2.357
  701W        W 1698   2.602   7.120   6.570
  702W        W 1699   0.316   5.300   0.995
  703W        W 1700   3.267   1.014   0.100
  704W        W 1701   6.152   6.249   5.454
  705W        W 1702   1.149   3.287   1.372
  706W        W 1703   3.495   1.043   3.027
  707W        W 1704   1.322   3.412   1.859
  708W        W 1705   1.299   5.455   1.190
  709W        W 1706   0.216   1.149   6.859
  710W        W 1707   6.218   0.722   0.506
  711W        W 1708   7.195   6.544   4.528
  712W        W 1709   5.088   7.276   1.882
  713W        W 1710   4.249   7.521   2.606
  714W        W 1711   2.951   2.493   6.890
  715W        W 1712   5.764   5.582   4.507
  716W        W 1713   3.080   1.390   5.304
  717W        W 1714   6.071   6.168   1.919
  718W        W 1715   4.331   1.982   4.476
  719W        W 1716   0.406   0.945   0.191
  720W        W 1717   5.282   5.541   1.861
  721W        W 1718   3.105   1.819   1.893
  722W        W 1719   7.851   2.883   5.993
  723W        W 1720   0.717   2.360   2.759
  724W        W 1721   5.811   2.351   7.180
  725W        W 1722   3.509   6.964   1.738
  726W        W 1723   6.092   3.046   5.680
  727W        W 1724   4.004   4.341   7.130
  728W        W 1725   5.593   3.938   2.907
  729W        W 1726   2.272   4.845   2.088
  730W        W 1727   5.706   7.202   3.990
  731W        W 1728   3.131   6.176   0.875
  732W        W 1729   3.961   4.054   7.558
  733W        W 1730   4.807   0.378   6.822
  734W        W 1731   4.788   2.496   7.324
  735W        W 1732   1.062   1.531   1.966
  736W        W 1733   3.068   5.943   7.000
  737W        W 1734   1.500   6.481   3.891
  738W        W 1735   1.909   1.457   3.013
  739W        W 1736   7.392   1.425   1.619
  740W        W 1737   2.007   3.967   0.364
  741W        W 1738   2.706   2.739   6.496
  742W        W 1739   4.011   0.488   6.596
  743W        W 1740   7.380   1.816   5.726
  744W        W 1741   7.037   2.475   3.975
  745W        W 1742   3.108   1.166   1.352
  746W        W 1743   6.253   3.936   5.249
  747W        W 1744   2.930   1.970   1.435
  748W        W 1745   5.836   1.606   4.595
  749W        W 1746   1.683   7.092   4.566
  750W        W 1747   1.693   3.759   1.791
  751W        W 1748   4.828   5.720   3.601
  752W        W 1749   3.953   4.648   5.930
  753W        W 1750   5.131   0.998   4.446
  754W        W 1751   3.489   7.978   1.868
  755W        W 1752   1.999   2.200   1.375
  756W        W 1753   3.884   5.827   4.643
  757W        W 1754   1.380   5.289   1.742
  758W        W 1755   1.128   6.305   4.194
  759W        W 1756   5.922   4.764   7.769
  760W        W 1757   2.515   5.798   7.173
  761W        W 1758   3.760   1.914   5.452
  762W        W 1759   4.107   4.956   2.285
  763W        W 1760   3.339   4.278   3.858
  764W        W 1761   3.433   1.413   2.695
  765W        W 1762   0.406   4.796   3.777
  766W        W 1763   6.698   0.699   2.487
  767W        W 1764   6.601   0.254   2.808
  768W        W 1765   1.352   6.858   6.729
  769W        W 1766   2.155   5.891   2.948
  770W        W 1767   5.690   1.991   1.337
  771W        W 1768   1.226   1.419   6.930
  772W        W 1769   5.909   7.999   5.567
  773W        W 1770   3.781   0.642   2.385
  774W        W 1771   7.722   0.179   6.714
  775W        W 1772   5.298   3.945   7.017
  776W        W 1773   4.633   1.189   5.912
  777W        W 1774   1.771   6.911   6.352
  778W        W 1775   6.431   6.301   6.820
  779W        W 1776   4.036   2.609   1.563
  780W        W 1777   3.823   4.637   5.117
  781W        W 1778   7.445   6.184   4.963
  782W        W 1779   6.564   0.510   1.380
  783W        W 1780   6.194   7.937   6.881
  784W        W 1781   3.643   2.269   5.117
  785W        W 1782   6.907   2.129   4.348
  786W        W 1783   1.166   2.196   1.038
  787W        W 1784   3.312   6.760   2.213
  788W        W 1785   7.739   5.893   0.488
  789W        W 1786   1.701   2.540   3.523
  790W        W 1787   6.224   2.710   4.970
  791W        W 1788   6.952   5.895   1.703
  792W        W 1789   6.203   2.140   5.699
  793W        W 1790   6.779   6.676   5.144
  794W        W 1791   1.771   5.376   6.898
  795W        W 1792   0.648   5.108   0.682
  796W        W 1793   0.756   6.594   1.707
  797W        W 1794   3.695   6.001   7.287
  798W        W 1795   1.740   2.193   5.174
  799W        W 1796   7.145   6.340   5.355
  800W        W 1797   3.976   5.450   2.265
  801W        W 1798   2.735   7.017   5.476
  802W        W 1799   1.449   4.245   3.212
  803W        W 1800   3.553   6.629   1.344
  804W        W 1801   3.922   6.746   3.056
  805W        W 1802   2.523   5.686   2.042
  806W        W 1803   1.529   6.862   3.523
  807W        W 1804   6.469   5.746   1.321
  808W        W 1805   3.162   6.407   4.762
  809W        W 1806   5.606   4.136   1.199
  810W        W 1807   6.285   7.835   2.833
  811W        W 1808   7.220   2.008   6.609
  812W        W 1809   4.202   1.462   2.319
  813W        W 1810   3.866   2.857   7.230
  814W        W 1811   3.002   3.244   1.185
  815W        W 1812   6.539   3.523   6.720
  816W        W 1813   3.492   1.648   0.789
  817W        W 1814   5.729   1.883   4.999
  818W        W 1815   3.965   1.558   0.951
  819W        W 1816   3.750   2.097   6.382
  820W        W 1817   6.578   3.454   2.748
  821W        W 1818   2.228   5.712   6.164
  822W        W 1819   5.662   4.487   1.926
  823W        W 1820   0.382   2.742   6.068
  824W        W 1821   5.351   3.607   5.819
  825W        W 1822   2.926   1.337   7.407
  826W        W 1823   1.481   2.819   3.890
  827W        W 1824   2.957   3.392   6.987
  828W        W 1825   6.604   0.377   5.216
  829W        W 1826   5.573   6.198   6.115
  830W        W 1827   6.567   2.481   4.181
  831W        W 1828   1.859   4.541   2.262
  832W        W 1829   2.190   1.960   3.836
  833W        W 1830   5.858   2.554   0.626
  834W        W 1831   6.472   2.389   1.850
  835W        W 1832   4.922   7.304   6.627
  836W        W 1833   5.552   7.262   1.693
  837W        W 1834   1.580   2.718   2.059
  838W        W 1835   5.548   2.403   1.065
  839W        W 1836   6.284   2.695   0.296
  840W        W 1837   3.686   1.168   0.678
  841W        W 1838   2.012   1.155   0.646
  842W        W 1839   4.973   3.902   5.523
  843W        W 1840   6.734   3.138   2.371
  844W        W 1841   7.022   3.659   4.486
  845W        W 1842   4.163   3.128   6.843
  846W        W 1843   1.449   0.728   3.176
  847W        W 1844   1.218   0.497   6.043
  848W        W 1845   1.627   1.160   6.699
  849W        W 1846   0.741   2.846   3.212
  850W        W 1847   1.723   4.750   7.317
  851W        W 1848   5.238   4.122   5.881
  852W        W 1849   6.899   4.137   2.252
  853W        W 1850   5.433   4.790   7.996
  854W        W 1851   3.898   4.389   1.582
  855W        W 1852   3.924   1.466   5.266
  856W        W 1853   0.481   5.154   6.322
  857W        W 1854   3.789   0.093   1.422
  858W        W 1855   0.853   3.394   6.481
  859W        W 1856   2.206   6.996   0.446
  860W        W 1857   0.658   0.951   5.624
  861W        W 1858   7.035   6.314   2.551
  862W        W 1859   5.060   5.051   6.202
  863W        W 1860   1.238   3.208   7.256
  864W        W 1861   1.870   7.849   2.229
  865W        W 1862   5.481   7.150   0.134
  866W        W 1863   4.733   0.748   5.669
  867W        W 1864   5.224   5.316   5.331
  868W        W 1865   3.264   4.551   2.120
  869W        W 1866   5.751   2.881   0.987
  870W        W 1867   4.248   1.856   5.409
  871W        W 1868   6.951   0.773   1.633
  872W        W 1869   0.792   1.019   2.695
  873W        W 1870   2.787   6.841   7.395
  874W        W 1871   0.361   3.314   6.703
  875W        W 1872   2.873   6.782   6.273
  876W        W 1873   3.543   3.531   5.801
  877W        W 1874   5.915   4.553   1.192
  878W        W 1875   3.426   5.316   4.405
  879W        W 1876   6.463   6.696   6.524
  880W        W 1877   4.550   2.641   3.345
  881W        W 1878   0.753   0.842   4.683
  882W        W 1879   3.657   2.666   1.230
  883W        W 1880   2.149   1.151   5.411
  884W        W 1881   3.935   2.430   3.722
  885W        W 1882   6.046   6.532   1.140
  886W        W 1883   4.903   3.361   1.130
  887W        W 1884   7.779   6.851   6.192
  888W        W 1885   5.071   5.120   7.670
  889W        W 1886   4.842   3.445   5.747
  890W        W 1887   3.004   6.883   3.700
  891W        W 1888   6.637   1.596   7.918
  892W        W 1889   1.370   5.566   6.350
  893W        W 1890   1.426   7.684   3.088
  894W        W 1891   6.275   6.756   5.331
  895W        W 1892   5.391   5.262   6.668
  896W        W 1893   4.124   5.605   6.814
  897W        W 1894   4.603   5.849   1.554
  898W        W 1895   0.269   4.279   3.765
  899W        W 1896   0.370   5.454   5.930
  900W        W 1897   6.352   2.271   2.802
  901W        W 1898   1.842   2.324   6.186
  902W        W 1899   4.419   5.547   7.318
  903W        W 1900   6.957   6.618   2.962
  904W        W 1901   5.880   3.985   6.093
  905W        W 1902   7.035   1.415   1.259
  906W        W 1903   0.869   3.737   6.098
  907W        W 1904   4.236   3.611   7.061
  908W        W 1905   6.778   7.162   7.243
  909W        W 1906   0.898   4.606   5.470
  910W        W 1907   4.203   2.472   7.149
  911W        W 1908   4.148   4.799   2.976
  912W        W 1909   2.853   5.419   7.834
  913W        W 1910   3.355   2.906   3.023
  914W        W 1911   3.765   0.150   2.267
  915W        W 1912   6.690   1.822   4.703
  916W        W 1913   2.729   1.794   3.988
  917W        W 1914   5.753   5.994   3.248
  918W        W 1915   4.801   5.745   1.060
  919W        W 1916   6.755   3.254   3.872
  920W        W 1917   0.443   3.604   2.006
  921W        W 1918   5.558   2.001   4.360
  922W        W 1919   6.433   6.296   3.757
  923W        W 1920   5.606   1.336   5.660
  924W        W 1921   7.346   5.541   6.733
  925W        W 1922   3.873   3.639   3.005
  926W        W 1923   7.631   4.651   6.592
  927W        W 1924   1.168   0.564   1.482
  928W        W 1925   1.652   5.341   5.520
  929W        W 1926   6.835   3.713   1.470
  930W        W 1927   2.675   2.539   3.441
  931W        W 1928   0.983   2.399   3.235
  932W        W 1929   6.728   5.965   3.455
  933W        W 1930   0.666   3.243   1.195
  934W        W 1931   3.905   5.534   7.264
  935W        W 1932   5.177   7.495   1.397
  936W        W 1933   3.275   1.929   3.241
  937W        W 1934   7.041   5.054   1.403
  938W        W 1935   3.082   4.391   4.939
  939W        W 1936   3.124   2.943   6.755
  940W        W 1937   0.305   2.810   1.753
  941W        W 1938   5.306   3.129   0.954
  942W        W 1939   0.006   5.372   5.568
  943W        W 1940   5.832   1.030   1.023
  944W        W 1941   3.796   2.625   2.842
  945W        W 1942   1.555   0.558   4.486
  946W        W 1943   5.451   3.005   2.511
  947W        W 1944   6.128   6.118   4.118
  948W        W 1945   2.594   2.914   1.134
  949W        W 1946   2.642   4.069   2.577
  950W        W 1947   5.694   0.108   6.896
  951W        W 1948   1.059   5.337   0.411
  952W        W 1949   4.512   7.055   5.676
  953W        W 1950   3.162   3.074   4.005
  954W        W 1951   4.647   2.938   2.035
  955W        W 1952   4.356   4.234   3.683
  956W        W 1953   2.542   6.187   1.375
  957W        W 1954   0.604   5.640   1.893
  958W        W 1955   4.716   2.977   5.558
  959W        W 1956   2.255   5.361   0.565
  960W        W 1957   2.137   4.753   6.047
  961W        W 1958   4.650   4.112   3.276
  962W        W 1959   4.255   3.163   7.362
  963W        W 1960   1.200   5.854   4.432
  964W        W 1961   6.165   6.638   4.010
  965W        W 1962   2.965   0.918   7.703
  966W        W 1963   3.340   4.729   5.219
  967W        W 1964   6.936   2.133   1.962
  968W        W 1965   7.330   4.344   2.450
  969W        W 1966   2.178   0.997   2.506
  970W        W 1967   6.576   7.584   7.015
  971W        W 1968   3.181   5.738   2.789
  972W        W 1969   4.929   7.056   1.438
  973W        W 1970   4.944   7.118   0.015
  974W        W 1971   5.950   6.230   7.771
  975W        W 1972   1.092   5.777   0.121
  976W        W 1973   0.863   4.818   3.362
  977W        W 1974   2.335   0.512   4.200
  978W        W 1975   4.911   5.938   4.507
  979W        W 1976   5.329   4.050   0.781
  980W        W 1977   3.151   0.398   6.528
  981W        W 1978   5.457   3.118   3.024
  982W        W 1979   6.096   4.440   3.188
  983W        W 1980   5.492   5.494   3.933
  984W        W 1981   7.618   6.057   6.544
  985W        W 1982   6.193   5.363   1.527
  986W        W 1983   0.070   1.360   0.431
  987W        W 1984   0.180   7.990   6.615
  988W        W 1985   6.970   1.155   5.143
  989W        W 1986   7.112   2.079   3.654
  990W        W 1987   3.943   5.891   5.803
  991W        W 1988   2.548   4.917   6.330
  992W        W 1989   4.814   4.483   3.578
  993W        W 1990   1.807   3.612   5.685
  994W        W 1991   1.881   2.989   4.637
  995W        W 1992   2.088   4.464   7.117
  996W        W 1993   4.679   4.593   1.136
  997W        W 1994   3.802   2.504   0.311
  998W        W 1995   7.580   3.288   1.929
  999W        W 1996   5.394   2.044   3.411
 1000W        W 1997   2.667   2.973   6.967
 1001W        W 1998   6.335   0.509   3.684
 1002W        W 1999   6.924   2.814   0.222
 1003W        W 2000   1.930   6.429   2.430
 1004W        W 2001   2.525   4.975   6.827
 1005W        W 2002   2.730   4.068   4.807
 1006W        W 2003   0.853   3.527   1.707
 1007W        W 2004   3.607   5.079   2.280
 1008W        W 2005   3.722   1.677   3.170
 1009W        W 2006   1.754   3.395   2.680
 1010W        W 2007   3.842   7.121   3.423
 1011W        W 2008   7.001   5.786   3.847
 1012W        W 2009   3.397   3.417   5.304
 1013W        W 2010   2.785   0.657   0.481
 1014W        W 2011   5.321   3.598   4.295
 1015W        W 2012   4.192   0.754   7.257
 1016W        W 2013   0.855   4.566   7.603
 1017W        W 2014   4.265   0.423   1.564
 1018W        W 2015   5.304   5.833   0.190
 1019W        W 2016   3.592   4.889   7.866
 1020W        W 2017   3.469   5.176   1.548
 1021W        W 2018   4.475   1.534   0.900
 1022W        W 2019   1.730   6.207   7.204
 1023W        W 2020   2.595   6.177   6.859
 1024W        W 2021   4.863   6.178   5.320
 1025W        W 2022   1.454   1.908   1.844
 1026W        W 2023   1.409   1.719   2.307
 1027W        W 2024   5.347   1.816   0.436
 1028W        W 2025   3.070   4.875   1.434
 1029W        W 2026   6.181   7.293   5.282
 1030W        W 2027   4.902   4.556   2.520
 1031W        W 2028   0.770   3.755   3.558
 1032W        W 2029   5.115   6.534   6.805
 1033W        W 2030   5.868   0.997   5.987
 1034W        W 2031   7.313   2.833   3.243
 1035W        W 2032   5.660   1.318   3.814
 1036W        W 2033   1.782   2.627   6.725
 1037W        W 2034   6.063   3.937   3.188
 1038W        W 2035   0.225   1.278   5.548
 1039W        W 2036   0.407   4.572   3.296
 1040W        W 2037   5.305   6.301   1.546
 1041W        W 2038   0.731   3.710   3.071
 1042W        W 2039   4.990   6.634   5.491
 1043W        W 2040   1.850   4.243   4.820
 1044W        W 2041   1.338   1.329   5.854
 1045W        W 2042   5.274   4.669   3.519
 1046W        W 2043   5.192   0.255   5.101
 1047W        W 2044   1.819   4.686   0.258
 1048W        W 2045   4.738   0.531   5.132
 1049W        W 2046   1.809   7.364   0.470
 1050W        W 2047   5.203   1.921   1.469
 1051W        W 2048   6.501   3.931   2.037
 1052W        W 2049   3.617   2.322   4.138
 1053W        W 2050   1.274   6.652   3.125
 1054W        W 2051   0.552   0.501   0.445
 1055W        W 2052   5.101   2.111   0.885
 1056W        W 2053   7.369   0.938   7.964
 1057W        W 2054   1.359   2.946   1.664
 1058W        W 2055   1.298   4.779   1.816
 1059W        W 2056   0.683   5.011   1.251
 1060W        W 2057   2.511   5.150   5.322
 1061W        W 2058   3.450   7.757   2.348
 1062W        W 2059   5.895   1.724   4.092
 1063W        W 2060   1.754   3.445   6.556
 1064W        W 2061   5.815   2.180   2.691
 1065W        W 2062   0.935   0.053   4.170
 1066W        W 2063   0.936   3.669   5.409
 1067W        W 2064   1.685   1.791   4.886
 1068W        W 2065   6.175   1.838   1.311
 1069W        W 2066   4.282   1.376   1.355
 1070W        W 2067   7.201   0.809   5.994
 1071W        W 2068   2.746   1.378   5.681
 1072W        W 2069   4.811   5.978   2.310
 1073W        W 2070   0.011   6.263   0.770
 1074W        W 2071   6.682   0.440   3.296
 1075W        W 2072   6.321   4.937   7.460
 1076W        W 2073   1.463   2.166   3.256
 1077W        W 2074   3.086   5.398   0.312
 1078W        W 2075   3.184   1.286   2.223
 1079W        W 2076   5.398   6.198   5.236
 1080W        W 2077   0.950   5.756   3.176
 1081W        W 2078   6.225   4.407   4.938
 1082W        W 2079   5.832   7.965   3.066
 1083W        W 2080   3.964   0.582   5.447
 1084W        W 2081   2.615   1.238   6.602
 1085W        W 2082   5.769   3.280   7.326
 1086W        W 2083   4.983   3.239   2.864
 1087W        W 2084   7.067   2.402   5.375
 1088W        W 2085   7.802   7.762   7.011
 1089W        W 2086   2.279   0.460   0.667
 1090W        W 2087   0.794   6.089   1.744
 1091W        W 2088   5.857   2.928   4.262
 1092W        W 2089   3.746   1.546   7.600
 1093W        W 2090   3.554   0.304   2.697
 1094W        W 2091   3.281   2.971   2.059
 1095W        W 2092   6.300   4.582   3.678
 1096W        W 2093   3.782   4.662   0.288
 1097W        W 2094   3.624   6.309   3.504
 1098W        W 2095   0.707   1.766   1.631
 1099W        W 2096   5.350   1.379   2.120
 1100W        W 2097   6.252   2.383   7.443
 1101W        W 2098   3.102   6.262   2.174
 1102W        W 2099   1.640   6.872   0.377
 1103W        W 2100   3.804   5.439   0.672
 1104W        W 2101   6.383   1.871   0.259
 1105W        W 2102   3.407   6.322   6.973
 1106W        W 2103   6.894   6.894   4.307
 1107W        W 2104   7.061   2.245   6.167
 1108W        W 2105   4.899   3.799   6.103
 1109W        W 2106   3.173   1.527   5.952
 1110W        W 2107   3.873   6.948   4.818
 1111W        W 2108   4.649   6.356   4.621
 1112W        W 2109   7.736   1.604   1.973
 1113W        W 2110   6.264   5.316   0.375
 1114W        W 2111   0.981   2.926   0.489
 1115W        W 2112   2.986   2.967   6.129
 1116W        W 2113   0.591   2.901   6.509
 1117W        W 2114   4.076   2.390   5.404
 1118W        W 2115   3.948   2.663   6.732
 1119W        W 2116   3.071   6.843   1.496
 1120W        W 2117   2.938   2.710   4.701
 1121W        W 2118   7.665   4.998   5.643
 1122W        W 2119   7.283   4.040   1.483
 1123W        W 2120   6.317   1.557   4.446
 1124W        W 2121   3.796   5.555   1.545
 1125W        W 2122   3.687   2.660   2.175
 1126W        W 2123   4.672   1.571   5.392
 1127W        W 2124   2.710   3.181   4.751
 1128W        W 2125   3.298   4.621   6.633
 1129W        W 2126   2.606   2.268   3.879
 1130W        W 2127   5.305   2.422   7.174
 1131W        W 2128   6.868   5.393   5.252
 1132W        W 2129   3.656   5.966   2.879
 1133W        W 2130   6.939   5.881   5.199
 1134W        W 2131   0.647   6.477   4.207
 1135W        W 2132   6.896   2.900   4.201
 1136W        W 2133   4.995   0.801   3.225
 1137W        W 2134   1.945   6.833   1.225
 1138W        W 2135   4.646   5.081   6.497
 1139W        W 2136   6.641   2.092   5.249
 1140W        W 2137   6.934   2.916   5.429
 1141W        W 2138   3.730   3.149   3.736
 1142W        W 2139   1.857   4.961   5.220
 1143W        W 2140   5.710   4.282   2.388
 1144W        W 2141   4.710   7.830   5.915
 1145W        W 2142   1.274   0.923   3.599
 1146W        W 2143   3.651   5.084   3.272
 1147W        W 2144   1.518   5.979   6.766
 1148W        W 2145   0.884   5.775   3.698
 1149W        W 2146   2.147   4.000   1.860
 1150W        W 2147   5.880   4.778   5.690
 1151W        W 2148   4.006   6.971   3.955
 1152W        W 2149   4.582   1.672   3.536
 1153W        W 2150   6.658   2.724   4.626
 1154W        W 2151   6.981   1.862   2.922
 1155W        W 2152   0.271   3.990   4.230
 1156W        W 2153   4.412   3.403   5.455
 1157W        W 2154   3.203   3.167   5.692
 1158W        W 2155   2.828   0.467   4.056
 1159W        W 2156   5.906   4.307   5.335
 1160W        W 2157   1.045   4.169   5.246
 1161W        W 2158   0.670   1.412   5.837
 1162W        W 2159   1.758   2.502   1.063
 1163W        W 2160   3.811   3.162   2.822
 1164W        W 2161   6.918   3.274   6.046
 1165W        W 2162   7.720   5.103   2.215
 1166W        W 2163   0.879   6.272   3.192
 1167W        W 2164   3.823   6.338   5.607
 1168W        W 2165   5.883   5.170   7.410
 1169W        W 2166   4.578   2.314   1.236
 1170W        W 2167   1.411   0.796   4.080
 1171W        W 2168   6.985   5.655   1.222
 1172W        W 2169   4.018   0.739   0.782
 1173W        W 2170   7.731   5.464   1.872
 1174W        W 2171   5.395   2.201   4.815
 1175W        W 2172   5.754   6.955   6.104
 1176W        W 2173   4.504   2.245   5.637
 1177W        W 2174   0.861   6.977   2.067
 1178W        W 2175   0.962   5.923   2.184
 1179W        W 2176   5.708   5.000   1.285
 1180W        W 2177   4.221   0.219   1.100
 1181W        W 2178   6.570   5.292   7.138
 1182W        W 2179   4.039   4.011   2.485
 1183W        W 2180   6.843   4.469   5.957
 1184W        W 2181   6.012   3.158   5.124
 1185W        W 2182   7.276   5.886   2.384
 1186W        W 2183   4.547   4.282   5.386
 1187W        W 2184   6.281   2.769   6.518
 1188W        W 2185   2.789   6.291   0.509
 1189W        W 2186   1.351   2.612   0.781
 1190W        W 2187   5.856   2.573   6.308
 1191W        W 2188   2.017   7.187   0.892
 1192W        W 2189   2.728   6.481   0.999
 1193W        W 2190   4.015   7.187   1.890
 1194W        W 2191   3.795   4.798   3.944
 1195W        W 2192   1.718   2.203   2.688
 1196W        W 2193   2.569   6.167   2.159
 1197W        W 2194   2.511   7.280   0.759
 1198W        W 2195   6.358   2.957   4.137
 1199W        W 2196   2.125   3.548   1.655
 1200W        W 2197   0.738   0.511   2.510
 1201W        W 2198   1.543   7.143   5.953
 1202W        W 2199   6.165   5.880   6.816
 1203W        W 2200   2.315   4.013   7.435
 1204W        W 2201   5.302   3.590   3.199
 1205W        W 2202   3.847   0.574   1.855
 1206W        W 2203   4.170   4.640   5.475
 1207W        W 2204   7.018   0.565   2.102
 1208W        W 2205   5.257   5.791   2.727
 1209W        W 2206   4.325   3.906   2.930
 1210W        W 2207   2.221   3.666   0.732
 1211W        W 2208   6.566   0.757   6.968
 1212W        W 2209   2.942   0.757   2.295
 1213W        W 2210   4.568   2.109   7.048
 1214W        W 2211   3.688   2.747   3.373
 1215W        W 2212   0.189   6.069   1.197
 1216W        W 2213   0.387   5.094   3.380
 1217W        W 2214   4.420   2.239   2.096
 1218W        W 2215   4.234   5.516   1.830
 1219W        W 2216   5.541   2.416   1.608
 1220W        W 2217   3.770   0.816   3.381
 1221W        W 2218   6.167   1.045   1.947
 1222W        W 2219   4.646   2.574   0.779
 1223W        W 2220   0.319   3.765   3.771
 1224W        W 2221   6.285   3.477   3.206
 1225W        W 2222   4.816   1.949   4.651
 1226W        W 2223   6.589   2.067   2.371
 1227W        W 2224   6.240   5.276   2.864
 1228W        W 2225   4.915   1.788   6.824
 1229W        W 2226   1.306   1.069   2.738
 1230W        W 2227   7.881   5.249   6.052
 1231W        W 2228   2.008   3.578   7.429
 1232W        W 2229   4.842   6.588   1.695
 1233W        W 2230   0.933   3.388   0.767
 1234W        W 2231   6.311   6.223   0.527
 1235W        W 2232   2.083   4.705   4.841
 1236W        W 2233   3.870   1.332   1.777
 1237W        W 2234   2.442   7.452   1.780
 1238W        W 2235   2.214   5.739   0.896
 1239W        W 2236   3.361   3.107   7.180
 1240W        W 2237   1.200   0.726   2.370
 1241W        W 2238   3.648   4.399   5.562
 1242W        W 2239   3.512   1.488   5.577
 1243W        W 2240   6.693   0.534   0.358
 1244W        W 2241   3.180   2.526   2.291
 1245W        W 2242   1.677   2.272   7.083
 1246W        W 2243   0.638   6.758   2.483
 1247W        W 2244   1.897   4.007   3.113
 1248W        W 2245   5.835   5.247   2.529
 1249W        W 2246   3.511   6.938   7.629
 1250W        W 2247   3.895   3.534   6.692
 1251W        W 2248   5.934   3.746   1.371
 1252W        W 2249   3.759   1.195   6.058
 1253W        W 2250   3.272   5.171   2.835
 1254W        W 2251   5.066   5.387   5.819
 1255W        W 2252   7.937   0.433   6.329
 1256W        W 2253   5.028   5.090   1.825
 1257W        W 2254   3.044   2.105   2.548
 1258W        W 2255   4.172   5.575   5.477
 1259W        W 2256   2.367   6.483   1.838
 1260W        W 2257   4.875   2.397   2.655
 1261W        W 2258   5.504   4.853   6.953
 1262W        W 2259   3.653   2.417   0.788
 1263W        W 2260   1.060   4.389   6.125
 1264W        W 2261   0.863   7.416   6.620
 1265W        W 2262   1.545   7.902   3.530
 1266W        W 2263   0.916   6.093   0.485
 1267W        W 2264   5.727   6.751   3.742
 1268W        W 2265   1.440   3.063   2.890
 1269W        W 2266   0.592   4.524   6.423
 1270W        W 2267   3.549   4.208   5.084
 1271W        W 2268   1.760   3.172   1.898
 1272W        W 2269   3.622   2.316   7.881
 1273W        W 2270   0.219   5.555   3.534
 1274W        W 2271   0.927   0.599   1.947
 1275W        W 2272   4.837   7.513   5.521
 1276W        W 2273   5.405   4.787   2.607
 1277W        W 2274   3.539   7.029   0.375
 1278W        W 2275   4.369   0.296   3.095
 1279W        W 2276   0.899   4.895   3.880
 1280W        W 2277   6.896   4.993   6.036
 1281W        W 2278   2.969   2.299   5.776
 1282W        W 2279   4.567   5.249   4.084
 1283W        W 2280   4.235   6.455   3.968
 1284W        W 2281   6.489   3.918   2.546
 1285W        W 2282   4.686   1.618   6.322
 1286W        W 2283   3.996   7.463   1.016
 1287W        W 2284   5.354   7.142   2.812
 1288W        W 2285   0.237   1.412   5.051
 1289W        W 2286   4.197   0.423   2.187
 1290W        W 2287   4.911   7.711   6.934
 1291W        W 2288   2.900   2.759   5.511
 1292W        W 2289   5.128   0.343   1.052
 1293W        W 2290   3.378   1.944   7.593
 1294W        W 2291   0.512   5.299   5.433
 1295W        W 2292   7.132   6.868   5.511
 1296W        W 2293   1.901   5.005   0.695
 1297W        W 2294   6.034   0.909   6.987
 1298W        W 2295   2.587   3.651   3.549
 1299W        W 2296   5.448   2.852   0.524
 1300W        W 2297   6.775   7.963   5.874
 1301W        W 2298   7.637   4.349   1.235
 1302W        W 2299   5.010   5.462   4.013
 1303W        W 2300   5.943   4.895   3.780
 1304W        W 2301   5.942   3.498   5.924
 1305W        W 2302   7.912   1.543   6.888
 1306W        W 2303   1.294   5.396   4.647
 1307W        W 2304   7.694   1.550   6.045
 1308W        W 2305   4.997   4.841   0.799
 1309W        W 2306   3.796   7.594   1.697
 1310W        W 2307   6.634   7.514   5.055
 1311W        W 2308   5.013   2.849   3.300
 1312W        W 2309   1.763   2.690   1.530
 1313W        W 2310   3.668   0.817   6.403
 1314W        W 2311   7.592   4.618   2.070
 1315W        W 2312   4.932   0.199   5.557
 1316W        W 2313   1.390   3.883   5.481
 1317W        W 2314   4.278   1.893   1.179
 1318W        W 2315   2.823   6.857   2.341
 1319W        W 2316   2.930   1.988   6.709
 1320W        W 2317   1.795   4.037   2.226
 1321W        W 2318   1.550   6.725   5.625
 1322W        W 2319   0.900   7.006   6.979
 1323W        W 2320   3.883   2.904   0.839
 1324W        W 2321   4.207   1.854   6.303
 1325W        W 2322   5.091   5.548   2.326
 1326W        W 2323   2.285   1.560   2.185
 1327W        W 2324   3.924   5.923   2.457
 1328W        W 2325   2.302   6.399   3.592
 1329W        W 2326   3.691   6.201   4.336
 1330W        W 2327   4.934   6.704   3.996
 1331W        W 2328   2.167   6.582   6.229
 1332W        W 2329   6.148   6.680   0.666
 1333W        W 2330   6.516   4.851   2.768
 1334W        W 2331   2.222   3.339   4.728
 1335W        W 2332   5.809   6.300   1.502
 1336W        W 2333   2.049   4.827   7.726
 1337W        W 2334   6.151   5.337   3.707
 1338W        W 2335   3.075   5.686   5.307
 1339W        W 2336   1.504   6.578   2.675
 1340W        W 2337   5.267   4.233   2.630
 1341W        W 2338   3.164   5.823   7.902
 1342W        W 2339   4.602   2.126   5.149
 1343W        W 2340   6.454   2.271   4.784
 1344W        W 2341   5.493   6.267   6.618
 1345W        W 2342   1.826   7.438   6.306
 1346W        W 2343   0.867   1.204   1.029
 1347W        W 2344   5.300   2.744   0.005
 1348W        W 2345   4.504   5.397   0.345
 1349W        W 2346   1.386   3.513   1.006
 1350W        W 2347   5.964   0.917   2.834
 1351W        W 2348   4.957   4.428   5.623
 1352W        W 2349   7.755   5.428   0.751
 1353W        W 2350   3.733   2.211   1.534
 1354W        W 2351   6.889   5.637   3.092
 1355W        W 2352   3.839   6.038   6.797
 1356W        W 2353   1.956   5.982   1.239
 1357W        W 2354   7.826   2.821   1.981
 1358W        W 2355   0.840   5.467   4.366
 1359W        W 2356   5.563   4.893   6.343
 1360W        W 2357   7.761   3.264   4.128
 1361W        W 2358   3.951   6.009   5.220
 1362W        W 2359   7.549   7.311   6.864
 1363W        W 2360   3.985   6.766   1.573
 1364W        W 2361   6.812   5.082   7.562
 1365W        W 2362   7.254   6.641   7.308
 1366W        W 2363   2.615   2.718   5.070
 1367W        W 2364   0.519   5.952   3.392
 1368W        W 2365   1.259   5.060   3.561
 1369W        W 2366   6.381   6.181   0.029
 1370W        W 2367   0.133   6.005   6.361
 1371W        W 2368   0.554   4.112   2.802
 1372W        W 2369   5.810   4.322   0.743
 1373W        W 2370   3.585   3.711   7.474
 1374W        W 2371   1.183   4.145   6.898
 1375W        W 2372   1.388   3.155   2.358
 1376W        W 2373   1.773   1.332   7.959
 1377W        W 2374   4.511   2.120   3.280
 1378W        W 2375   1.155   1.045   7.824
 1379W        W 2376   5.478   6.401   0.007
 1380W        W 2377   5.817   4.778   2.311
 1381W        W 2378   2.530   2.529   7.192
 1382W        W 2379   5.532   7.275   5.770
 1383W        W 2380   3.533   5.823   5.497
 1384W        W 2381   1.765   6.701   7.011
 1385W        W 2382   5.700   3.324   1.216
 1386W        W 2383   6.657   4.573   7.592
 1387W        W 2384   5.601   0.877   1.440
 1388W        W 2385   0.223   0.875   7.689
 1389W        W 2386   3.971   5.813   6.367
 1390W        W 2387   3.844   2.738   5.084
 1391W        W 2388   7.998   3.573   1.669
 1392W        W 2389   0.828   7.293   3.175
 1393W        W 2390   1.316   6.752   6.233
 1394W        W 2391   6.105   3.803   6.821
 1395W        W 2392   3.341   0.819   6.776
 1396W        W 2393   3.447   2.263   3.660
 1397W        W 2394   7.673   6.818   7.020
 1398W        W 2395   5.506   1.383   6.148
 1399W        W 2396   3.608   0.322   6.230
 1400W        W 2397   5.190   1.249   4.887
 1401W        W 2398   2.076   4.261   6.220
 1402W        W 2399   4.096   2.469   3.237
 1403W        W 2400   3.464   0.764   4.583
 1404W        W 2401   6.246   7.970   3.592
 1405W        W 2402   1.269   3.760   7.225
 1406W        W 2403   2.628   5.520   1.065
 1407W        W 2404   5.885   6.256   3.686
 1408W        W 2405   6.460   3.458   5.899
 1409W        W 2406   2.319   1.411   1.690
 1410W        W 2407   2.005   4.016   4.234
 1411W        W 2408   0.005   1.373   6.409
 1412W        W 2409   3.441   7.779   5.560
 1413W        W 2410   1.812   2.958   6.340
 1414W        W 2411   6.708   5.133   3.155
 1415W        W 2412   1.842   1.791   0.538
 1416W        W 2413   3.201   5.374   2.363
 1417W        W 2414   7.107   5.153   6.484
 1418W        W 2415   5.362   2.064   6.797
 1419W        W 2416   0.862   1.075   2.194
 1420W        W 2417   0.702   7.067   4.165
 1421W        W 2418   5.704   4.737   4.235
 1422W        W 2419   7.025   2.621   1.806
 1423W        W 2420   0.824   1.235   0.166
 1424W        W 2421   1.196   4.305   4.784
 1425W        W 2422   5.464   0.268   5.592
 1426W        W 2423   2.859   4.225   3.001
 1427W        W 2424   3.340   1.066   5.790
 1428W        W 2425   5.667   3.318   0.662
 1429W        W 2426   1.257   2.959   5.696
 1430W        W 2427   3.947   1.226   3.119
 1431W        W 2428   3.366   0.902   2.551
 1432W        W 2429   3.680   0.448   3.716
 1433W        W 2430   5.138   4.076   3.159
 1434W        W 2431   1.644   1.075   5.544
 1435W        W 2432   4.562   3.507   0.773
 1436W        W 2433   5.698   1.785   6.405
 1437W        W 2434   6.893   4.301   3.228
 1438W        W 2435   2.936   0.837   0.943
 1439W        W 2436   7.119   7.586   5.972
 1440W        W 2437   7.330   7.363   6.384
 1441W        W 2438   4.397   7.196   2.243
 1442W        W 2439   5.761   6.517   5.781
 1443W        W 2440   4.880   5.354   0.716
 1444W        W 2441   4.407   1.694   6.805
 1445W        W 2442   7.345   2.677   7.319
 1446W        W 2443   1.154   0.543   4.853
 1447W        W 2444   5.140   5.799   5.495
 1448W        W 2445   2.697   4.119   4.298
 1449W        W 2446   3.510   6.616   0.048
 1450W        W 2447   2.709   5.942   0.119
 1451W        W 2448   6.277   2.935   2.251
 1452W        W 2449   5.979   6.475   0.228
 1453W        W 2450   0.716   5.071   5.840
 1454W        W 2451   5.535   5.520   5.684
 1455W        W 2452   6.619   6.781   3.809
 1456W        W 2453   7.046   1.723   7.106
 1457W        W 2454   7.040   0.553   7.021
 1458W        W 2455   1.587   5.706   7.232
 1459W        W 2456   5.196   1.413   1.529
 1460W        W 2457   6.212   7.835   2.311
 1461W        W 2458   4.874   1.261   3.456
 1462W        W 2459   7.135   2.874   6.280
 1463W        W 2460   7.355   6.439   6.838
 1464W        W 2461   1.850   5.630   0.556
 1465W        W 2462   4.293   6.940   5.213
 1466W        W 2463   1.944   1.800   6.371
 1467W        W 2464   1.966   0.208   3.570
 1468W        W 2465   2.459   1.419   2.667
 1469W        W 2466   4.244   0.756   2.590
 1470W        W 2467   1.989   2.914   3.730
 1471W        W 2468   5.344   6.250   0.491
 1472W        W 2469   1.598   7.539   1.850
 1473W        W 2470   6.031   5.567   3.243
 1474W        W 2471   2.711   3.652   1.255
 1475W        W 2472   4.200   7.109   4.444
 1476W        W 2473   7.354   1.845   1.259
 1477W        W 2474   7.833   2.600   1.530
 1478W        W 2475   7.760   4.140   2.232
 1479W        W 2476   1.815   1.522   1.928
 1480W        W 2477   4.000   2.037   0.206
 1481W        W 2478   4.398   5.949   2.008
 1482W        W 2479   3.953   5.142   5.244
 1483W        W 2480   1.102   5.063   0.896
 1484W        W 2481   0.776   0.945   0.587
 1485W        W 2482   7.229   2.376   2.310
 1486W        W 2483   2.544   4.447   6.169
 1487W        W 2484   3.151   1.707   7.131
 1488W        W 2485   5.782   1.698   3.509
 1489W        W 2486   0.911   7.774   3.024
 1490W        W 2487   4.174   5.092   3.788
 1491W        W 2488   4.811   2.914   7.917
 1492W        W 2489   0.980   1.000   6.018
 1493W        W 2490   6.399   4.545   6.691
 1494W        W 2491   3.246   2.957   3.519
 1495W        W 2492   2.969   0.655   1.425
 1496W        W 2493   5.426   5.390   6.181
 1497W        W 2494   0.520   6.512   2.902
 1498W        W 2495   0.511   6.002   2.897
 1499W        W 2496   3.711   4.894   4.434
 1500W        W 2497   2.924   0.861   6.492
 1501W        W 2498   2.988   4.922   2.494
 1502W        W 2499   6.767   1.855   1.167
 1503W        W 2500   7.346   7.046   4.586
 1504W        W 2501   2.208   2.269   2.746
 1505W        W 2502   5.731   0.170   1.743
 1506W        W 2503   5.229   2.827   3.754
 1507W        W 2504   2.663   5.387   6.490
 1508W        W 2505   7.470   3.877   3.577
 1509W        W 2506   2.632   0.440   6.559
 1510W        W 2507   6.905   2.433   6.612
 1511W        W 2508   2.700   1.519   1.392
 1512W        W 2509   0.634   4.941   2.544
 1513W        W 2510   0.734   1.290   6.901
 1514W        W 2511   6.820   5.502   6.733
 1515W        W 2512   2.319   0.060   3.211
 1516W        W 2513   7.023   2.630   5.843
 1517W        W 2514   0.431   6.505   2.090
 1518W        W 2515   6.611   7.346   4.541
 1519W        W 2516   3.476   4.214   1.799
 1520W        W 2517   7.219   1.575   2.064
 1521W        W 2518   0.975   7.457   3.953
 1522W        W 2519   1.133   5.391   3.932
 1523W        W 2520   3.224   2.086   0.868
 1524W        W 2521   3.456   4.596   0.705
 1525W        W 2522   1.425   1.426   1.619
 1526W        W 2523   0.865   4.103   5.722
 1527W        W 2524   4.797   2.835   4.659
 1528W        W 2525   6.237   2.062   7.021
 1529W        W 2526   4.369   7.320   0.365
 1530W        W 2527   6.775   0.814   4.550
 1531W        W 2528   1.689   0.743   1.448
 1532W        W 2529   1.698   3.182   7.512
 1533W        W 2530   5.055   3.784   6.595
 1534W        W 2531   5.664   7.471   3.043
 1535W        W 2532   1.958   5.056   2.911
 1536W        W 2533   2.621   1.166   2.263
 1537W        W 2534   6.490   3.046   3.047
 1538W        W 2535   3.370   3.392   2.795
 1539W        W 2536   5.459   5.925   4.787
 1540W        W 2537   1.379   4.584   4.414
 1541W        W 2538   0.639   1.173   6.395
 1542W        W 2539   2.225   2.635   6.298
 1543W        W 2540   7.740   2.164   6.638
 1544W        W 2541   4.542   7.898   2.786
 1545W        W 2542   5.255   6.272   5.718
 1546W        W 2543   2.996   3.471   6.042
 1547W        W 2544   5.489   4.869   7.498
 1548W        W 2545   5.258   4.062   1.585
 1549W        W 2546   6.681   4.776   1.154
 1550W        W 2547   1.801   5.449   6.024
 1551W        W 2548   3.417   1.729   5.123
 1552W        W 2549   2.098   5.064   3.437
 1553W        W 2550   4.152   0.403   6.048
 1554W        W 2551   1.544   0.536   2.729
 1555W        W 2552   6.240   3.890   5.760
 1556W        W 2553   6.715   1.102   6.629
 1557W        W 2554   6.637   0.898   2.035
 1558W        W 2555   0.702   4.347   6.898
 1559W        W 2556   1.677   0.509   7.297
 1560W        W 2557   2.553   4.982   7.769
 1561W        W 2558   2.085   5.091   5.652
 1562W        W 2559   4.444   4.946   5.172
 1563W        W 2560   1.894   6.311   1.935
 1564W        W 2561   2.380   3.780   4.533
 1565W        W 2562   5.765   5.687   2.809
 1566W        W 2563   1.102   1.189   4.001
 1567W        W 2564   4.230   4.372   3.211
 1568W        W 2565   3.402   0.541   3.167
 1569W        W 2566   5.180   5.661   6.911
 1570W        W 2567   2.184   2.583   0.451
 1571W        W 2568   3.187   5.654   4.101
 1572W        W 2569   0.880   5.534   5.735
 1573W        W 2570   2.435   0.674   2.181
 1574W        W 2571   2.093   6.703   0.027
 1575W        W 2572   1.871   6.342   2.951
 1576W        W 2573   1.604   6.175   1.550
 1577W        W 2574   6.264   5.046   2.388
 1578W        W 2575   3.415   3.573   6.890
 1579W        W 2576   2.618   2.333   5.396
 1580W        W 2577   1.880   1.294   1.459
 1581W        W 2578   0.787   6.788   3.263
 1582W        W 2579   5.929   7.408   0.013
 1583W        W 2580   3.013   2.596   3.839
 1584W        W 2581   5.593   5.632   2.325
 1585W        W 2582   2.755   2.892   4.268
 1586W        W 2583   0.053   6.115   3.511
 1587W        W 2584   3.358   0.542   4.130
 1588W        W 2585   3.471   6.772   3.460
 1589W        W 2586   0.430   0.415   6.474
 1590W        W 2587   1.867   1.927   2.229
 1591W        W 2588   4.105   1.581   7.991
 1592W        W 2589   4.290   4.745   7.201
 1593W        W 2590   1.332   6.863   7.243
 1594W        W 2591   3.924   3.484   6.179
 1595W        W 2592   7.537   1.390   1.121
 1596W        W 2593   4.094   4.826   7.910
 1597W        W 2594   4.965   5.459   0.146
 1598W        W 2595   5.136   3.407   2.400
 1599W        W 2596   1.299   2.527   6.837
 1600W        W 2597   0.175   0.877   6.425
 1601W        W 2598   4.169   4.484   4.102
 1602W        W 2599   5.938   3.091   3.789
 1603W        W 2600   6.799   4.546   3.690
 1604W        W 2601   4.390   4.049   7.295
 1605W        W 2602   1.489   4.115   1.042
 1606W        W 2603   4.056   2.899   2.483
 1607W        W 2604   4.762   6.217   5.817
 1608W        W 2605   3.483   3.172   1.000
 1609W        W 2606   2.744   3.192   7.437
 1610W        W 2607   3.835   1.074   5.573
 1611W        W 2608   2.214   0.652   3.712
 1612W        W 2609   7.269   6.712   5.009
 1613W        W 2610   3.183   6.673   1.011
 1614W        W 2611   1.971   3.072   7.039
 1615W        W 2612   5.312   2.761   4.753
 1616W        W 2613   3.707   1.199   4.393
 1617W        W 2614   2.198   7.044   4.668
 1618W        W 2615   0.534   0.734   6.079
 1619W        W 2616   2.413   5.987   3.877
 1620W        W 2617   1.316   4.353   5.656
 1621W        W 2618   7.304   3.373   3.205
 1622W        W 2619   1.587   1.306   3.712
 1623W        W 2620   5.094   0.777   1.336
 1624W        W 2621   4.291   2.667   5.807
 1625W        W 2622   1.212   0.779   5.609
 1626W        W 2623   6.139   6.037   5.905
 1627W        W 2624   1.473   0.418   3.579
 1628W        W 2625   5.974   0.279   2.176
 1629W        W 2626   5.612   6.476   1.927
 1630W        W 2627   2.200   2.449   3.644
 1631W        W 2628   4.418   2.602   3.860
 1632W        W 2629   4.389   1.218   7.161
 1633W        W 2630   0.864   0.710   7.149
 1634W        W 2631   2.991   5.177   4.169
 1635W        W 2632   5.775   5.197   3.017
 1636W        W 2633   7.045   3.942   1.044
 1637W        W 2634   3.695   5.731   4.124
 1638W        W 2635   1.607   7.171   1.400
 1639W        W 2636   1.320   1.834   0.659
 1640W        W 2637   6.647   4.247   1.143
 1641W        W 2638   3.318   3.834   6.159
 1642W        W 2639   7.420   2.572   2.796
 1643W        W 2640   1.240   2.179   5.077
 1644W        W 2641   2.618   5.933   5.264
 1645W        W 2642   2.012   4.922   6.885
 1646W        W 2643   3.468   2.861   0.563
 1647W        W 2644   4.146   5.138   7.494
 1648W        W 2645   2.579   3.328   3.154
 1649W        W 2646   2.236   7.113   5.449
 1650W        W 2647   1.734   5.769   3.684
 1651W        W 2648   6.188   7.098   3.787
 1652W        W 2649   4.293   4.869   6.202
 1653W        W 2650   6.661   2.773   3.780
 1654W        W 2651   0.050   1.317   0.957
 1655W        W 2652   2.540   2.299   6.697
 1656W        W 2653   0.063   0.541   0.225
 1657W        W 2654   3.841   0.245   3.153
 1658W        W 2655   4.434   7.228   0.900
 1659W        W 2656   5.389   6.187   7.099
 1660W        W 2657   4.689   4.575   3.035
 1661W        W 2658   2.248   6.308   0.955
 1662W        W 2659   2.952   5.149   5.565
 1663W        W 2660   0.556   2.938   0.806
 1664W        W 2661   2.784   5.019   2.951
 1665W        W 2662   2.293   3.220   2.021
 1666W        W 2663   6.943   6.982   6.434
 1667W        W 2664   1.043   0.540   4.363
 1668W        W 2665   3.945   6.371   2.684
 1669W        W 2666   4.058   2.381   2.459
 1670W        W 2667   1.246   0.156   1.789
 1671W        W 2668   4.683   4.567   6.439
 1672W        W 2669   5.071   2.380   1.330
 1673W        W 2670   4.586   6.031   3.246
 1674W        W 2671   2.027   3.501   4.252
 1675W        W 2672   0.561   7.955   6.989
 1676W        W 2673   1.483   0.058   7.062
 1677W        W 2674   4.370   6.465   1.128
 1678W        W 2675   3.167   3.881   5.166
 1679W        W 2676   4.522   0.138   1.891
 1680W        W 2677   0.852   6.231   4.618
 1681W        W 2678   6.404   2.008   7.764
 1682W        W 2679   3.826   6.619   0.499
 1683W        W 2680   4.694   0.168   0.842
 1684W        W 2681   2.711   3.730   7.279
 1685W        W 2682   2.277   4.338   5.744
 1686W        W 2683   3.129   1.688   3.699
 1687W        W 2684   2.206   1.180   4.867
 1688W        W 2685   1.236   3.916   1.923
 1689W        W 2686   1.641   3.201   5.924
 1690W        W 2687   1.676   1.048   1.854
 1691W        W 2688   6.383   3.126   3.551
 1692W        W 2689   5.109   3.169   0.284
 1693W        W 2690   3.931   6.052   3.810
 1694W        W 2691   4.893   3.881   1.018
 1695W        W 2692   3.362   1.388   1.750
 1696W        W 2693   2.004   5.784   4.141
 1697W        W 2694   3.806   2.977   1.817
 1698W        W 2695   6.235   1.515   7.620
 1699W        W 2696   3.358   6.894   4.899
 1700W        W 2697   4.275   4.279   1.259
 1701W        W 2698   0.938   6.751   4.514
 1702W        W 2699   5.078   4.823   7.209
 1703W        W 2700   6.000   2.099   4.641
 1704W        W 2701   0.726   2.545   1.890
 1705W        W 2702   4.226   4.822   1.071
 1706W        W 2703   2.320   6.501   0.455
 1707W        W 2704   1.548   4.082   4.466
 1708W        W 2705   1.185   3.423   4.959
 1709W        W 2706   2.126   5.595   5.657
 1710W        W 2707   6.666   1.406   0.906
 1711W        W 2708   4.617   1.455   0.116
 1712W        W 2709   0.628   6.217   2.465
 1713W        W 2710   4.671   5.637   6.887
 1714W        W 2711   4.558   1.130   6.418
 1715W        W 2712   0.591   5.916   5.892
 1716W        W 2713   6.028   7.493   5.757
 1717W        W 2714   3.782   4.634   2.064
 1718W        W 2715   5.396   6.823   4.193
 1719W        W 2716   4.321   1.235   2.780
 1720W        W 2717   7.134   6.445   5.844
 1721W        W 2718   2.142   1.091   2.023
 1722W        W 2719   7.141   1.068   3.551
 1723W        W 2720   1.050   7.249   7.433
 1724W        W 2721   2.634   5.111   0.746
 1725W        W 2722   1.569   0.228   1.380
 1726W        W 2723   1.061   1.656   7.369
 1727W        W 2724   1.014   0.224   7.244
 1728W        W 2725   5.536   2.865   7.140
 1729W        W 2726   2.552   6.728   1.433
 1730W        W 2727   4.559   2.066   0.794
 1731W        W 2728   4.478   4.568   4.490
 1732W        W 2729   6.484   6.500   2.092
 1733W        W 2730   3.124   6.392   3.555
 1734W        W 2731   3.257   4.012   7.725
 1735W        W 2732   4.000   2.970   0.323
 1736W        W 2733   3.811   6.749   2.070
 1737W        W 2734   7.739   4.240   1.719
 1738W        W 2735   1.439   1.355   7.556
 1739W        W 2736   6.474   4.926   7.948
 1740W        W 2737   0.720   4.912   6.716
 1741W        W 2738   0.703   6.197   6.303
 1742W        W 2739   1.911   1.435   5.786
 1743W        W 2740   2.350   4.300   3.050
 1744W        W 2741   6.377   3.452   1.434
 1745W        W 2742   2.427   3.769   4.028
 1746W        W 2743   5.588   6.665   6.967
 1747W        W 2744   4.124   2.296   4.902
 1748W        W 2745   3.271   3.972   2.199
 1749W        W 2746   7.115   2.181   0.968
 1750W        W 2747   5.064   3.052   5.976
 1751W        W 2748   6.133   3.428   0.971
 1752W        W 2749   4.355   6.049   5.551
 1753W        W 2750   7.390   0.548   7.431
 1754W        W 2751   6.618   3.905   4.740
 1755W        W 2752   3.246   6.988   5.393
 1756W        W 2753   3.220   1.219   4.501
 1757W        W 2754   1.743   6.839   3.046
 1758W        W 2755   4.420   2.108   3.769
 1759W        W 2756   4.696   0.336   5.995
 1760W        W 2757   2.815   1.976   4.597
 1761W        W 2758   5.824   6.955   1.989
 1762W        W 2759   3.497   4.914   1.120
 1763W        W 2760   0.190   3.505   1.195
 1764W        W 2761   1.300   1.450   0.137
 1765W        W 2762   6.581   5.014   3.643
 1766W        W 2763   2.098   6.345   6.830
 1767W        W 2764   3.893   5.133   1.858
 1768W        W 2765   4.563   3.582   7.437
 1769W        W 2766   0.233   7.725   7.316
 1770W        W 2767   5.727   7.553   5.370
 1771W        W 2768   5.897   6.552   2.728
 1772W        W 2769   0.285   3.438   4.155
 1773W        W 2770   6.982   1.424   3.179
 1774W        W 2771   2.333   0.531   5.475
 1775W        W 2772   1.497   3.512   4.535
 1776W        W 2773   0.789   2.519   6.755
 1777W        W 2774   0.333   5.995   2.126
 1778W        W 2775   4.901   3.467   5.236
 1779W        W 2776   3.336   6.498   1.787
 1780W        W 2777   0.646   5.615   0.544
 1781W        W 2778   5.314   4.711   4.534
 1782W        W 2779   1.046   4.432   4.066
 1783W        W 2780   5.038   5.764   4.992
 1784W        W 2781   7.033   5.735   0.310
 1785W        W 2782   0.849   4.391   2.450
 1786W        W 2783   1.039   3.974   2.773
 1787W        W 2784   4.059   2.097   5.853
 1788W        W 2785   6.119   3.680   1.845
 1789W        W 2786   3.362   5.174   5.896
 1790W        W 2787   2.056   3.393   6.147
 1791W        W 2788   6.144   2.137   5.188
 1792W        W 2789   1.306   4.296   1.501
 1793W        W 2790   6.828   4.391   6.454
 1794W        W 2791   1.209   5.771   1.756
 1795W        W 2792   0.149   5.803   2.599
 1796W        W 2793   4.410   5.197   6.937
 1797W        W 2794   2.182   0.892   1.509
 1798W        W 2795   5.655   1.439   0.787
 1799W        W 2796   3.877   1.879   2.347
 1800W        W 2797   7.109   4.478   1.176
 1801W        W 2798   5.430   0.583   4.498
 1802W        W 2799   7.280   4.398   3.572
 1803W        W 2800   5.465   4.628   0.977
 1804W        W 2801   2.532   2.027   5.791
 1805W        W 2802   3.492   1.316   6.766
 1806W        W 2803   7.227   0.466   0.172
 1807W        W 2804   7.208   4.932   3.736
 1808W        W 2805   0.018   5.309   3.108
 1809W        W 2806   1.006   0.564   3.866
 1810W        W 2807   0.641   6.182   6.809
 1811W        W 2808   1.684   3.141   4.209
 1812W        W 2809   0.069   0.601   6.839
 1813W        W 2810   1.906   5.022   2.408
 1814W        W 2811   5.020   2.021   7.251
 1815W        W 2812   5.336   5.320   1.390
 1816W        W 2813   3.988   2.078   2.873
 1817W        W 2814   2.274   5.392   6.977
 1818W        W 2815   0.061   6.294   3.002
 1819W        W 2816   5.121   4.875   1.296
 1820W        W 2817   1.059   2.734   2.837
 1821W        W 2818   6.932   0.640   2.914
 1822W        W 2819   5.948   0.513   5.601
 1823W        W 2820   6.644   5.780   6.038
 1824W        W 2821   1.356   6.274   4.697
 1825W        W 2822   3.321   2.322   6.600
 1826W        W 2823   0.542   4.126   6.122
 1827W        W 2824   7.232   2.263   3.157
 1828W        W 2825   2.525   6.579   6.574
 1829W        W 2826   3.172   3.258   0.307
 1830W        W 2827   6.743   2.110   6.963
 1831W        W 2828   5.676   4.441   2.884
 1832W        W 2829   1.863   5.891   0.130
 1833W        W 2830   2.064   2.574   3.175
 1834W        W 2831   6.227   5.531   5.856
 1835W        W 2832   0.669   3.438   5.007
 1836W        W 2833   5.592   3.176   0.148
 1837W        W 2834   6.693   0.701   6.011
 1838W        W 2835   1.565   4.695   4.879
 1839W        W 2836   2.371   7.740   2.230
 1840W        W 2837   2.237   3.333   2.513
 1841W        W 2838   3.103   6.057   6.146
 1842W        W 2839   1.782   4.900   1.913
 1843W        W 2840   4.626   2.076   6.532
 1844W        W 2841   5.670   3.941   1.903
 1845W        W 2842   5.174   7.905   0.600
 1846W        W 2843   3.728   4.892   6.561
 1847W        W 2844   2.259   7.906   5.752
 1848W        W 2845   4.661   1.530   2.526
 1849W        W 2846   6.609   5.458   3.902
 1850W        W 2847   3.223   0.855   7.269
 1851W        W 2848   3.425   5.193   3.853
 1852W        W 2849   6.882   1.245   2.287
 1853W        W 2850   3.831   3.461   4.126
 1854W        W 2851   0.302   5.320   2.663
 1855W        W 2852   2.258   3.399   1.172
 1856W        W 2853   0.910   5.432   1.533
 1857W        W 2854   3.193   5.028   1.970
 1858W        W 2855   6.434   5.428   7.606
 1859W        W 2856   1.179   1.838   1.415
 1860W        W 2857   2.676   5.634   0.534
 1861W        W 2858   2.315   6.450   4.093
 1862W        W 2859   2.046   0.581   4.612
 1863W        W 2860   1.672   0.230   6.596
 1864W        W 2861   4.273   3.713   7.999
 1865W        W 2862   1.737   3.841   6.188
 1866W        W 2863   7.034   7.377   6.817
 1867W        W 2864   5.139   7.555   5.932
 1868W        W 2865   3.526   4.223   0.295
 1869W        W 2866   3.516   7.032   3.013
 1870W        W 2867   1.043   5.112   5.463
 1871W        W 2868   0.363   5.725   6.825
 1872W        W 2869   3.053   4.941   7.893
 1873W        W 2870   6.535   2.735   2.643
 1874W        W 2871   6.993   1.855   7.638
 1875W        W 2872   7.488   2.342   4.153
 1876W        W 2873   1.986   3.733   3.761
 1877W        W 2874   6.944   1.232   7.048
 1878W        W 2875   5.774   2.152   3.721
 1879W        W 2876   3.242   3.721   1.219
 1880W        W 2877   7.222   5.945   2.887
 1881W        W 2878   2.879   5.873   2.419
 1882W        W 2879   2.580   3.252   1.541
 1883W        W 2880   5.120   4.776   6.622
 1884W        W 2881   3.211   3.961   4.672
 1885W        W 2882   4.611   3.218   0.314
 1886W        W 2883   5.502   0.880   3.133
 1887W        W 2884   2.140   5.961   3.449
 1888W        W 2885   4.115   5.218   6.505
 1889W        W 2886   6.116   0.300   2.667
 1890W        W 2887   6.670   1.583   2.598
 1891W        W 2888   3.823   5.417   3.620
 1892W        W 2889   1.382   3.050   4.660
 1893W        W 2890   5.671   2.479   4.498
 1894W        W 2891   2.356   6.346   3.094
 1895W        W 2892   2.693   1.602   6.965
 1896W        W 2893   3.019   1.582   4.829
 1897W        W 2894   4.948   2.168   0.381
 1898W        W 2895   1.384   5.675   2.909
 1899W        W 2896   5.338   1.158   1.104
 1900W        W 2897   2.443   4.994   2.555
 1901W        W 2898   2.245   3.357   5.673
 1902W        W 2899   7.195   0.858   2.501
 1903W        W 2900   1.781   5.513   1.047
 1904W        W 2901   6.194   6.663   3.514
 1905W        W 2902   4.676   1.644   7.250
 1906W        W 2903   5.504   7.001   7.340
 1907W        W 2904   4.532   6.495   3.497
 1908W        W 2905   0.025   3.324   3.668
 1909W        W 2906   1.032   1.414   0.594
 1910W        W 2907   1.645   3.451   7.093
 1911W        W 2908   1.688   1.087   1.039
 1912W        W 2909   1.260   7.373   6.955
 1913W        W 2910   2.067   2.759   1.941
 1914W        W 2911   3.080   7.622   2.033
 1915W        W 2912   1.844   4.615   5.613
 1916W        W 2913   4.369   5.939   6.082
 1917W        W 2914   3.091   3.838   2.688
 1918W        W 2915   6.002   4.640   6.167
 1919W        W 2916   1.102   0.961   6.779
 1920W        W 2917   1.185   5.325   7.870
 1921W        W 2918   6.805   6.094   2.143
 1922W        W 2919   3.727   6.530   3.940
 1923W        W 2920   7.944   7.065   6.634
 1924W        W 2921   6.752   1.377   4.199
 1925W        W 2922   4.980   4.960   2.827
 1926W        W 2923   3.151   3.473   7.455
 1927W        W 2924   2.830   3.977   6.067
 1928W        W 2925   0.772   5.423   6.713
 1929W        W 2926   1.336   3.785   1.433
 1930W        W 2927   1.849   1.625   4.010
 1931W        W 2928   5.455   5.033   5.824
 1932W        W 2929   4.031   3.213   4.962
 1933W        W 2930   6.009   6.558   2.244
 1934W        W 2931   1.648   5.676   1.515
 1935W        W 2932   6.681   6.691   5.641
 1936W        W 2933   6.071   0.764   5.031
 1937W        W 2934   4.362   1.760   4.922
 1938W        W 2935   4.584   0.814   3.524
 1939W        W 2936   7.795   1.783   0.943
 1940W        W 2937   2.013   6.797   2.056
 1941W        W 2938   5.546   6.483   1.091
 1942W        W 2939   4.425   1.015   0.994
 1943W        W 2940   4.025   2.018   3.423
 1944W        W 2941   0.620   3.129   2.047
 1945W        W 2942   6.026   2.822   7.288
 1946W        W 2943   4.797   2.141   1.732
 1947W        W 2944   6.244   2.244   0.555
 1948W        W 2945   7.553   2.038   6.173
 1949W        W 2946   5.642   0.025   5.140
 1950W        W 2947   6.474   1.823   2.991
 1951W        W 2948   1.843   5.668   6.494
 1952W        W 2949   1.440   5.139   2.230
 1953W        W 2950   1.973   7.992   6.199
 1954W        W 2951   6.614   7.920   3.230
 1955W        W 2952   2.068   7.696   0.834
 1956W        W 2953   2.266   3.969   4.986
 1957W        W 2954   6.963   2.248   4.869
 1958W        W 2955   7.221   6.323   1.964
 1959W        W 2956   5.342   2.182   2.890
 1960W        W 2957   4.438   2.249   0.352
 1961W        W 2958   0.960   1.380   1.474
 1962W        W 2959   6.334   3.467   2.301
 1963W        W 2960   1.535   0.902   6.012
 1964W        W 2961   0.687   7.116   1.616
 1965W        W 2962   7.812   6.540   6.597
 1966W        W 2963   3.601   1.779   0.025
 1967W        W 2964   1.067   2.893   2.078
 1968W        W 2965   6.422   5.289   1.982
 1969W        W 2966   2.976   1.690   0.622
 1970W        W 2967   0.039   3.507   6.301
 1971W        W 2968   0.368   7.038   2.112
 1972W        W 2969   3.473   6.038   5.009
 1973W        W 2970   6.013   4.806   2.806
 1974W        W 2971   2.885   1.070   6.044
 1975W        W 2972   5.890   6.896   4.358
 1976W        W 2973   5.881   2.674   6.806
 1977W        W 2974   4.693   1.210   0.577
 1978W        W 2975   3.307   4.768   4.107
 1979W        W 2976   2.641   2.409   2.518
 1980W        W 2977   3.589   7.401   2.672
 1981W        W 2978   1.170   5.140   6.561
 1982W        W 2979   2.130   4.421   0.570
 1983W        W 2980   4.867   1.087   5.295
 1984W        W 2981   6.302   1.457   2.264
 1985W        W 2982   3.997   4.465   4.598
 1986W        W 2983   3.926   5.068   7.014
 1987W        W 2984   1.009   5.869   6.609
 1988W        W 2985   2.224   4.559   3.494
 1989W        W 2986   4.050   3.667   5.707
 1990W        W 2987   4.222   2.936   5.367
 1991W        W 2988   0.596   0.757   3.100
 1992W        W 2989   2.134   0.428   6.465
 1993W        W 2990   0.766   0.964   3.625
 1994W        W 2991   2.140   3.477   5.196
 1995W        W 2992   6.419   0.707   2.921
 1996W        W 2993   2.775   4.146   2.094
 1997W        W 2994   7.033   5.056   0.887
 1998W        W 2995   4.052   3.558   7.572
 1999W        W 2996   2.428   0.882   6.260
 2000W        W 2997   7.120   3.866   3.218
 2001W        W 2998   0.269   1.166   6.030
 2002W        W 2999   4.957   3.805   3.563
 2003W        W 3000   0.836   2.972   1.615
 2004W        W 3001   6.823   3.191   1.517
 2005W        W 3002   5.173   2.789   7.506
 2006W        W 3003   6.569   2.483   7.914
 2007W        W 3004   2.325   7.091   2.451
 2008W        W 3005   1.283   6.079   3.463
 2009W        W 3006   0.473   0.502   7.923
 2010W        W 3007   6.392   6.920   4.365
 2011W        W 3008   2.622   3.074   2.708
 2012W        W 3009   3.932   3.448   1.761
 2013W        W 3010   2.617   4.525   0.547
 2014W        W 3011   5.499   2.226   6.304
 2015W        W 3012   4.343   1.940   2.510
 2016W        W 3013   5.683   2.945   7.694
 2017W        W 3014   6.698   5.379   2.717
 2018W        W 3015   2.862   2.907   3.170
 2019W        W 3016   2.514   1.980   5.033
 2020W        W 3017   1.681   4.667   1.466
 2021W        W 3018   1.462   4.772   0.654
 2022W        W 3019   4.200   2.911   3.022
 2023W        W 3020   1.103   2.838   4.289
 2024W        W 3021   3.546   1.004   7.647
 2025W        W 3022   6.707   1.675   2.060
 2026W        W 3023   0.920   3.856   4.860
 2027W        W 3024   4.245   0.997   4.652
 2028W        W 3025   5.760   2.295   2.153
 2029W        W 3026   0.880   4.657   4.528
 2030W        W 3027   7.725   6.548   3.301
 2031W        W 3028   5.434   4.391   6.753
 2032W        W 3029   6.445   0.577   4.218
 2033W        W 3030   7.800   2.153   1.293
 2034W        W 3031   0.411   6.456   3.398
 2035W        W 3032   6.579   7.134   6.757
 2036W        W 3033   6.144   5.612   4.129
 2037W        W 3034   5.592   4.362   6.286
 2038W        W 3035   0.957   2.638   5.244
 2039W        W 3036   4.127   7.800   3.088
 2040W        W 3037   3.919   7.638   2.200
 2041W        W 3038   3.534   1.629   4.627
 2042W        W 3039   5.346   2.464   2.444
 2043W        W 3040   0.362   4.526   2.590
 2044W        W 3041   3.422   1.845   6.736
 2045W        W 3042   7.205   3.335   4.103
 2046W        W 3043   1.028   2.469   2.352
 2047W        W 3044   6.548   5.789   5.535
 2048W        W 3045   3.365   7.859   2.854
 2049W        W 3046   4.036   3.392   0.906
 2050W        W 3047   1.145   4.066   3.671
 2051W        W 3048   4.083   0.281   2.672
 2052W        W 3049   5.706   0.517   6.587
 2053W        W 3050   5.310   5.688   4.365
 2054W        W 3051   5.438   6.735   6.447
 2055W        W 3052   5.117   4.330   1.172
 2056W        W 3053   4.028   0.043   1.861
 2057W        W 3054   0.691   7.911   7.486
 2058W        W 3055   2.298   4.288   4.573
 2059W        W 3056   4.678   2.828   2.888
 2060W        W 3057   6.527   0.511   0.868
 2061W        W 3058   1.520   3.832   2.816
 2062W        W 3059   1.998   1.038   7.110
 2063W        W 3060   3.583   5.644   6.066
 2064W        W 3061   5.796   0.470   3.026
 2065W        W 3062   6.757   7.013   3.369
 2066W        W 3063   0.804   0.352   6.807
 2067W        W 3064   6.506   2.748   1.475
 2068W        W 3065   3.887   4.867   1.439
 2069W        W 3066   1.073   7.075   3.607
 2070W        W 3067   5.847   4.337   4.562
 2071W        W 3068   7.007   6.844   6.912
 2072W        W 3069   0.620   4.819   7.197
 2073W        W 3070   3.375   2.242   1.916
 2074W        W 3071   2.746   0.704   3.614
 2075W        W 3072   5.373   2.676   6.130
 2076W        W 3073   1.382   0.276   4.067
 2077W        W 3074   1.133   6.354   1.444
 2078W        W 3075   5.397   7.531   6.872
 2079W        W 3076   3.774   5.064   2.766
 2080W        W 3077   7.652   3.719   1.307
 2081W        W 3078   7.101   4.566   4.094
 2082W        W 3079   1.454   0.611   1.903
 2083W        W 3080   6.956   1.231   7.997
 2084W        W 3081   6.476   6.353   0.974
 2085W        W 3082   2.347   2.510   4.221
 2086W        W 3083   0.742   7.503   7.114
 2087W        W 3084   1.600   7.475   0.949
 2088W        W 3085   1.426   2.536   5.417
 2089W        W 3086   7.069   7.518   4.742
 2090W        W 3087   2.333   6.211   2.616
 2091W        W 3088   5.874   4.243   7.001
 2092W        W 3089   6.389   7.812   5.518
 2093W        W 3090   1.310   3.971   5.970
 2094W        W 3091   4.310   5.406   0.831
 2095W        W 3092   2.234   1.244   1.112
 2096W        W 3093   6.894   7.982   5.371
 2097W        W 3094   5.001   6.804   4.564
 2098W        W 3095   6.497   5.435   4.888
 2099W        W 3096   6.259   7.089   3.253
 2100W        W 3097   5.732   3.858   4.437
 2101W        W 3098   3.692   5.569   5.083
 2102W        W 3099   4.670   2.241   4.185
 2103W        W 3100   7.406   5.838   4.137
 2104W        W 3101   0.457   2.829   6.995
 2105W        W 3102   1.540   6.584   2.167
 2106W        W 3103   0.915   0.341   7.733
 2107W        W 3104   6.554   3.380   0.676
 2108W        W 3105   2.314   6.007   0.478
 2109W        W 3106   7.725   2.493   2.376
 2110W        W 3107   2.486   4.205   0.936
 2111W        W 3108   4.908   5.410   4.507
 2112W        W 3109   2.870   2.298   6.290
 2113W        W 3110   1.611   3.464   3.188
 2114W        W 3111   4.787   4.115   2.782
 2115W        W 3112   7.441   2.495   6.392
 2116W        W 3113   4.610   6.400   2.108
 2117W        W 3114   4.232   1.097   0.075
 2118W        W 3115   6.576   0.861   5.016
 2119W        W 3116   4.394   1.238   3.329
 2120W        W 3117   4.518   3.856   5.710
 2121W        W 3118   1.617   6.142   4.285
 2122W        W 3119   1.009   1.051   3.169
 2123W        W 3120   6.829   5.574   2.138
 2124W        W 3121   4.795   0.518   1.660
 2125W        W 3122   6.501   6.739   7.077
 2126W        W 3123   4.990   6.211   0.075
 2127W        W 3124   1.985   0.626   1.897
 2128W        W 3125   1.231   2.456   1.817
 2129W        W 3126   4.973   3.895   2.318
 2130W        W 3127   5.288   7.800   5.503
 2131W        W 3128   6.266   3.089   4.628
 2132W        W 3129   4.378   1.290   1.868
 2133W        W 3130   3.396   5.808   4.550
 2134W        W 3131   5.825   6.080   2.365
 2135W        W 3132   3.736   7.167   1.344
 2136W        W 3133   0.371   5.903   3.871
 2137W        W 3134   0.067   4.898   6.417
 2138W        W 3135   1.444   4.226   6.450
 2139W        W 3136   5.512   6.496   2.417
 2140W        W 3137   7.102   2.764   4.956
 2141W        W 3138   6.011   1.689   0.542
 2142W        W 3139   6.668   1.300   4.737
 2143W        W 3140   6.330   4.456   7.190
 2144W        W 3141   4.654   6.136   7.646
 2145W        W 3142   6.226   5.788   4.593
 2146W        W 3143   4.702   1.470   3.021
 2147W        W 3144   0.164   0.775   5.704
 2148W        W 3145   3.590   6.375   0.878
 2149W        W 3146   7.572   3.779   1.822
 2150W        W 3147   5.234   4.616   6.023
 2151W        W 3148   6.305   5.830   3.701
 2152W        W 3149   7.467   5.027   1.766
 2153W        W 3150   7.151   1.660   0.816
 2154W        W 3151   3.725   1.258   0.058
 2155W        W 3152   0.674   2.693   4.536
 2156W        W 3153   4.538   1.068   2.330
 2157W        W 3154   6.900   0.431   5.639
 2158W        W 3155   1.677   2.046   3.733
 2159W        W 3156   7.055   2.630   0.718
 2160W        W 3157   3.518   2.723   3.870
 2161W        W 3158   4.079   3.364   3.392
 2162W        W 3159   2.946   1.221   2.655
 2163W        W 3160   6.372   7.107   5.747
 2164W        W 3161   4.558   2.589   1.667
 2165W        W 3162   5.437   6.863   3.331
 2166W        W 3163   3.699   3.875   7.946
 2167W        W 3164   1.322   1.909   6.963
 2168W        W 3165   1.751   0.985   4.701
 2169W        W 3166   3.039   7.105   1.939
 2170W        W 3167   7.885   3.106   1.551
 2171W        W 3168   6.320   5.036   5.856
 2172W        W 3169   3.643   3.205   7.597
 2173W        W 3170   2.328   1.517   4.157
 2174W        W 3171   4.626   5.759   4.134
 2175W        W 3172   5.880   5.198   6.055
 2176W        W 3173   2.249   3.242   6.623
 2177W        W 3174   6.340   6.075   2.347
 2178W        W 3175   6.576   6.131   4.586
 2179W        W 3176   6.406   0.307   5.711
 2180W        W 3177   2.092   5.949   2.241
 2181W        W 3178   5.970   2.263   4.158
 2182W        W 3179   6.172   2.590   4.485
 2183W        W 3180   6.851   7.129   5.915
 2184W        W 3181   4.026   6.658   3.546
 2185W        W 3182   3.084   5.182   7.435
 2186W        W 3183   1.565   2.585   3.024
 2187W        W 3184   6.797   3.479   3.203
 2188W        W 3185   6.732   1.836   3.957
 2189W        W 3186   2.349   4.813   3.064
 2190W        W 3187   2.006   5.512   3.236
 2191W        W 3188   6.609   5.500   4.399
 2192W        W 3189   4.484   6.886   3.802
 2193W        W 3190   4.726   7.216   6.126
 2194W        W 3191   1.551   1.367   0.599
 2195W        W 3192   2.501   5.765   7.689
 2196W        W 3193   1.745   2.234   5.686
 2197W        W 3194   6.116   7.328   2.818
 2198W        W 3195   6.566   5.320   6.264
 2199W        W 3196   5.736   6.447   4.167
 2200W        W 3197   6.268   5.492   0.910
 2201W        W 3198   1.930   3.545   2.181
 2202W        W 3199   5.693   5.253   3.510
 2203W        W 3200   4.930   6.210   3.606
 2204W        W 3201   1.748   0.179   1.866
 2205W        W 3202   6.573   7.448   3.042
 2206W        W 3203   6.395   3.966   1.518
 2207W        W 3204   1.703   2.644   4.956
 2208W        W 3205   6.037   7.341   2.296
 2209W        W 3206   4.429   7.750   0.971
 2210W        W 3207   4.105   3.794   3.850
 2211W        W 3208   3.653   6.151   6.128
 2212W        W 3209   4.183   1.238   0.585
 2213W        W 3210   6.083   4.217   2.047
 2214W        W 3211   4.381   3.561   6.567
 2215W        W 3212   7.691   5.535   2.501
 2216W        W 3213   4.073   3.503   2.516
 2217W        W 3214   6.216   3.480   5.456
 2218W        W 3215   4.174   1.189   4.187
 2219W        W 3216   3.289   2.202   7.139
 2220W        W 3217   2.635   6.721   2.894
 2221W        W 3218   5.789   3.508   3.143
 2222W        W 3219   2.348   4.061   6.940
 2223W        W 3220   5.269   3.271   1.490
 2224W        W 3221   5.865   2.192   6.672
 2225W        W 3222   2.885   5.576   4.500
 2226W        W 3223   4.968   1.545   5.862
 2227W        W 3224   5.629   4.072   4.966
 2228W        W 3225   1.364   4.617   2.307
 2229W        W 3226   5.056   3.140   4.312
 2230W        W 3227   2.810   0.234   3.305
 2231W        W 3228   1.434   2.224   4.137
 2232W        W 3229   2.103   3.393   3.381
 2233W        W 3230   1.815   3.853   5.214
 2234W        W 3231   6.055   4.220   6.504
 2235W        W 3232   5.046   3.260   4.799
 2236W        W 3233   4.970   5.420   3.098
 2237W        W 3234   3.928   5.527   3.010
 2238W        W 3235   1.874   3.023   2.351
 2239W        W 3236   3.282   1.434   7.785
 2240W        W 3237   6.306   5.915   7.550
 2241W        W 3238   1.295   0.122   4.561
 2242W        W 3239   6.805   7.458   6.369
 2243W        W 3240   4.439   3.492   6.053
 2244W        W 3241   2.646   1.860   1.004
 2245W        W 3242   5.618   5.969   1.167
 2246W        W 3243   3.088   7.241   6.388
 2247W        W 3244   3.395   6.006   1.829
 2248W        W 3245   6.591   5.928   4.114
 2249W        W 3246   1.855   0.435   4.036
 2250W        W 3247   3.064   6.359   1.381
 2251W        W 3248   1.423   3.869   4.917
 2252W        W 3249   4.931   5.492   7.335
 2253W        W 3250   6.708   4.802   7.128
 2254W        W 3251   5.704   7.077   5.134
 2255W        W 3252   4.396   1.277   5.054
 2256W        W 3253   3.438   5.523   3.160
 2257W        W 3254   2.065   2.914   1.093
 2258W        W 3255   5.583   7.669   0.288
 2259W        W 3256   0.612   6.609   4.888
 2260W        W 3257   5.568   5.689   5.213
 2261W        W 3258   3.839   4.923   0.746
 2262W        W 3259   5.100   6.608   0.742
 2263W        W 3260   1.222   5.576   5.363
 2264W        W 3261   2.968   0.787   4.445
 2265W        W 3262   1.299   4.020   0.289
 2266W        W 3263   3.540   1.818   4.148
 2267W        W 3264   1.677   5.158   6.440
 2268W        W 3265   1.567   1.261   4.230
 2269W        W 3266   3.845   7.839   2.672
 2270W        W 3267   6.131   5.562   7.200
 2271W        W 3268   3.745   0.707   5.909
 2272W        W 3269   4.907   6.402   3.096
 2273W        W 3270   3.258   5.622   1.555
 2274W        W 3271   3.355   3.747   0.361
 2275W        W 3272   5.305   2.310   3.963
 2276W        W 3273   0.761   2.790   5.706
 2277W        W 3274   6.871   2.262   1.465
 2278W        W 3275   4.258   2.158   1.611
 2279W        W 3276   2.619   5.689   1.554
 2280W        W 3277   4.881   2.461   3.682
 2281W        W 3278   4.053   0.999   2.144
 2282W        W 3279   2.223   5.984   1.725
 2283W        W 3280   2.062   0.377   1.438
 2284W        W 3281   5.730   4.754   3.319
 2285W        W 3282   1.393   5.156   5.089
 2286W        W 3283   6.373   2.550   6.976
 2287W        W 3284   7.746   1.026   6.686
 2288W        W 3285   7.521   3.365   3.675
 2289W        W 3286   3.634   4.268   3.353
 2290W        W 3287   5.105   6.344   6.263
 2291W        W 3288   2.155   6.719   2.771
 2292W        W 3289   0.596   1.298   1.818
 2293W        W 3290   2.415   4.477   7.610
 2294W        W 3291   4.604   3.845   3.937
 2295W        W 3292   1.618   7.425   2.361
 2296W        W 3293   1.209   3.781   3.231
 2297W        W 3294   6.243   1.968   3.832
 2298W        W 3295   4.861   2.708   4.144
 2299W        W 3296   4.958   1.973   3.724
 2300W        W 3297   4.915   0.859   3.927
 2301W        W 3298   3.590   3.818   2.635
 2302W        W 3299   3.591   0.268   5.693
 2303W        W 3300   1.485   5.305   0.675
 2304W        W 3301   4.284   7.320   3.594
 2305W        W 3302   7.708   6.003   2.721
 2306W        W 3303   6.232   3.689   6.324
 2307W        W 3304   1.911   2.075   4.263
 2308W        W 3305   0.488   1.885   2.640
 2309W        W 3306   4.522   2.850   7.084
 2310W        W 3307   1.957   1.512   4.536
 2311W        W 3308   2.226   7.100   6.229
 2312W        W 3309   2.530   4.272   1.657
 2313W        W 3310   0.085   2.954   6.443
 2314W        W 3311   6.317   1.714   5.448
 2315W        W 3312   6.176   5.018   3.305
 2316W        W 3313   7.551   6.327   2.364
 2317W        W 3314   5.711   2.973   1.623
 2318W        W 3315   2.894   4.116   1.291
 2319W        W 3316   1.048   7.861   6.859
 2320W        W 3317   3.657   5.435   6.523
 2321W        W 3318   3.724   3.914   6.436
 2322W        W 3319   2.984   6.379   3.048
 2323W        W 3320   5.837   6.100   4.525
 2324W        W 3321   6.727   6.878   2.376
 2325W        W 3322   1.637   2.010   1.007
 2326W        W 3323   7.513   2.433   1.894
 2327W        W 3324   2.044   1.918   5.892
 2328W        W 3325   7.741   3.173   2.389
 2329W        W 3326   4.787   4.759   4.834
 2330W        W 3327   5.537   0.780   5.696
 2331W        W 3328   5.993   5.530   4.966
 2332W        W 3329   2.874   2.230   3.025
 2333W        W 3330   6.535   5.785   0.367
 2334W        W 3331   3.506   7.009   6.188
 2335W        W 3332   3.763   2.330   7.378
 2336W        W 3333   3.111   0.453   5.694
 2337W        W 3334   4.187   2.694   2.035
 2338W        W 3335   7.244   3.298   2.421
 2339W        W 3336   6.291   3.640   4.426
 2340W        W 3337   4.080   1.054   3.689
 2341W        W 3338   6.002   5.834   1.514
 2342W        W 3339   4.976   2.427   4.946
 2343W        W 3340   3.519   5.481   1.976
 2344W        W 3341   2.839   4.721   7.459
 2345W        W 3342   6.975   5.089   1.898
 2346W        W 3343   1.875   4.541   3.106
 2347W        W 3344   7.830   5.918   2.191
 2348W        W 3345   5.378   5.754   7.362
 2349W        W 3346   1.931   4.181   6.689
 2350W        W 3347   3.254   6.577   0.518
 2351W        W 3348   0.983   3.324   4.482
 2352W        W 3349   2.813   1.735   3.298
 2353W        W 3350   5.912   6.979   5.607
 2354W        W 3351   4.036   2.026   0.717
 2355W        W 3352   2.642   5.556   5.612
 2356W        W 3353   0.185   2.958   4.002
 2357W        W 3354   1.453   0.294   2.284
 2358W        W 3355   1.332   7.257   6.421
 2359W        W 3356   2.135   2.032   0.900
 2360W        W 3357   7.938   2.425   6.234
 2361W        W 3358   2.308   1.582   0.725
 2362W        W 3359   1.476   0.967   7.152
 2363W        W 3360   6.877   2.586   7.112
 2364W        W 3361   2.237   2.683   7.941
 2365W        W 3362   0.212   2.361   2.593
 2366W        W 3363   6.236   0.263   3.167
 2367W        W 3364   7.613   6.066   3.224
 2368W        W 3365   2.638   4.812   1.722
 2369W        W 3366   2.377   5.337   2.920
 2370W        W 3367   4.817   2.594   5.889
 2371W        W 3368   5.318   0.478   1.684
 2372W        W 3369   0.919   0.693   1.034
 2373W        W 3370   6.396   2.031   4.319
 2374W        W 3371   0.954   2.094   3.954
 2375W        W 3372   5.381   7.799   1.741
 2376W        W 3373   3.861   5.865   1.972
 2377W        W 3374   6.124   1.441   1.028
 2378W        W 3375   1.139   5.040   4.317
 2379W        W 3376   4.627   0.564   1.177
 2380W        W 3377   5.913   6.305   6.908
 2381W        W 3378   4.947   4.391   4.469
 2382W        W 3379   3.857   0.588   1.285
 2383W        W 3380   6.398   1.097   2.587
 2384W        W 3381   1.158   5.256   3.087
 2385W        W 3382   7.684   0.548   7.878
 2386W        W 3383   5.565   3.142   5.954
 2387W        W 3384   1.104   6.494   5.472
 2388W        W 3385   5.423   7.912   1.206
 2389W        W 3386   5.937   1.240   4.256
 2390W        W 3387   2.042   7.767   1.754
 2391W        W 3388   0.471   7.073   6.683
 2392W        W 3389   2.585   1.420   5.156
 2393W        W 3390   0.702   5.108   2.990
 2394W        W 3391   0.168   2.458   2.085
 2395W        W 3392   5.758   3.868   5.593
 2396W        W 3393   1.827   3.726   1.202
 2397W        W 3394   6.484   3.187   6.321
 2398W        W 3395   3.299   0.820   0.570
 2399W        W 3396   4.506   4.964   0.664
 2400W        W 3397   2.320   1.616   5.562
 2401W        W 3398   6.461   7.113   6.255
 2402W        W 3399   3.497   5.521   1.129
 2403W        W 3400   4.491   6.547   5.484
 2404W        W 3401   1.462   1.656   6.539
 2405W        W 3402   6.658   0.959   0.672
 2406W        W 3403   3.144   5.034   3.316
 2407W        W 3404   3.456   3.198   1.521
 2408W        W 3405   0.582   1.751   6.214
 2409W        W 3406   1.496   2.238   1.442
 2410W        W 3407   0.280   2.492   6.615
 2411W        W 3408   2.081   1.777   2.661
 2412W        W 3409   1.067   2.942   6.638
 2413W        W 3410   1.393   0.181   7.590
 2414W        W 3411   2.705   7.353   2.253
 2415W        W 3412   0.084   5.074   1.877
 2416W        W 3413   5.726   1.529   7.498
 2417W        W 3414   5.354   6.922   2.141
 2418W        W 3415   3.564   7.648   1.233
 2419W        W 3416   7.535   5.511   5.761
 2420W        W 3417   6.770   5.081   2.343
 2421W        W 3418   3.026   3.052   5.114
 2422W        W 3419   1.111   7.644   4.438
 2423W        W 3420   6.758   5.432   0.662
 2424W        W 3421   6.958   0.699   6.448
 2425W        W 3422   7.037   0.658   5.204
 2426W        W 3423   3.209   1.411   3.227
 2427W        W 3424   1.009   1.454   2.509
 2428W        W 3425   4.188   5.604   3.914
 2429W        W 3426   3.806   3.361   7.152
 2430W        W 3427   3.927   5.773   1.077
 2431W        W 3428   5.144   0.651   5.412
 2432W        W 3429   4.320   6.687   0.663
 2433W        W 3430   1.926   6.659   0.727
 2434W        W 3431   3.733   2.220   6.888
 2435W        W 3432   1.073   7.867   7.849
 2436W        W 3433   4.127   1.767   1.917
 2437W        W 3434   1.225   0.662   7.483
 2438W        W 3435   3.683   4.899   5.590
 2439W        W 3436   2.036   0.960   5.891
 2440W        W 3437   6.376   2.288   1.352
 2441W        W 3438   7.015   6.145   4.270
 2442W        W 3439   6.973   2.546   3.478
 2443W        W 3440   2.984   7.673   2.555
 2444W        W 3441   3.043   3.478   1.625
 2445W        W 3442   5.831   5.346   0.672
 2446W        W 3443   0.438   0.933   1.004
 2447W        W 3444   0.403   1.585   6.654
 2448W        W 3445   4.956   6.071   1.836
 2449W        W 3446   5.134   1.073   5.771
 2450W        W 3447   4.947   0.851   0.858
 2451W        W 3448   6.805   4.580   0.712
 2452W        W 3449   5.899   4.858   0.778
 2453W        W 3450   0.918   3.040   6.119
 2454W        W 3451   5.273   5.605   0.978
 2455W        W 3452   5.515   7.085   4.640
 2456W        W 3453   0.536   5.199   2.125
 2457W        W 3454   0.696   7.945   6.492
 2458W        W 3455   5.094   2.375   4.451
 2459W        W 3456   6.178   0.450   6.795
 2460W        W 3457   3.826   0.683   2.893
 2461W        W 3458   6.667   2.589   5.132
 2462W        W 3459   5.379   3.660   5.312
 2463W        W 3460   2.532   1.130   7.110
 2464W        W 3461   6.773   4.985   0.379
 2465W        W 3462   2.238   3.876   5.483
 2466W        W 3463   4.655   5.110   1.136
 2467W        W 3464   2.521   7.563   2.732
 2468W        W 3465   2.488   0.106   6.187
 2469W        W 3466   2.139   6.871   6.701
 2470W        W 3467   5.248   7.064   3.753
 2471W        W 3468   7.393   5.359   1.176
 2472W        W 3469   4.139   5.480   6.026
 2473W        W 3470   6.713   3.723   4.078
 2474W        W 3471   4.311   2.761   1.155
 2475W        W 3472   3.308   6.805   6.625
 2476W        W 3473   2.483   0.062   5.291
 2477W        W 3474   1.497   7.721   6.630
 2478W        W 3475   4.082   1.549   3.559
 2479W        W 3476   7.080   3.720   1.909
 2480W        W 3477   3.697   1.415   2.247
 2481W        W 3478   2.171   5.257   6.484
 2482W        W 3479   1.704   3.340   4.979
 2483W        W 3480   5.530   7.530   4.907
 2484W        W 3481   3.545   4.248   7.334
 2485W        W 3482   4.810   6.896   2.133
 2486W        W 3483   4.004   6.522   5.163
 2487W        W 3484   6.332   1.740   5.995
 2488W        W 3485   5.697   2.640   3.857
 2489W        W 3486   1.536   2.961   1.140
 2490W        W 3487   3.336   2.409   2.829
 2491W        W 3488   1.186   4.797   5.844
 2492W        W 3489   5.200   7.318   3.263
 2493W        W 3490   5.790   6.551   5.267
 2494W        W 3491   6.121   5.989   1.030
 2495W        W 3492   3.923   4.150   2.020
 2496W        W 3493   4.049   2.338   1.132
 2497W        W 3494   5.720   5.043   4.650
 2498W        W 3495   1.129   3.866   0.756
 2499W        W 3496   4.216   7.253   1.429
 2500W        W 3497   7.244   1.040   1.980
 2501W        W 3498   2.723   1.343   0.920
 2502W        W 3499   1.416   4.766   5.393
 2503W        W 3500   0.583   0.014   7.983
 2504W        W 3501   1.513   5.238   2.718
 2505W        W 3502   5.237   4.195   3.712
 2506W        W 3503   1.105   7.604   3.478
 2507W        W 3504   0.298   5.187   6.807
 2508W        W 3505   1.516   7.376   3.673
 2509W        W 3506   6.454   5.030   0.764
 2510W        W 3507   2.082   6.414   1.449
 2511W        W 3508   4.175   2.417   7.934
 2512W        W 3509   3.594   3.272   3.264
 2513W        W 3510   2.726   5.704   6.090
 2514W        W 3511   1.865   4.012   7.184
 2515W        W 3512   1.795   4.150   1.478
 2516W        W 3513   2.916   3.486   5.381
 2517W        W 3514   0.286   5.798   5.523
 2518W        W 3515   5.968   3.030   3.263
 2519W        W 3516   0.679   7.973   2.604
 2520W        W 3517   1.170   7.744   7.344
 2521W        W 3518   7.642   3.565   2.702
 2522W        W 3519   2.632   2.701   0.655
 2523W        W 3520   5.083   5.925   3.184
 2524W        W 3521   3.393   5.960   6.554
 2525W        W 3522   4.909   7.493   2.823
 2526W        W 3523   3.677   4.388   7.824
 2527W        W 3524   2.732   4.634   2.187
 2528W        W 3525   6.238   5.721   6.320
 2529W        W 3526   4.053   7.294   5.524
 2530W        W 3527   1.723   0.818   2.327
 2531W        W 3528   4.242   6.386   5.902
 2532W        W 3529   3.149   4.362   3.388
 2533W        W 3530   0.909   0.670   6.416
 2534W        W 3531   3.551   1.396   1.240
 2535W        W 3532   2.109   1.896   1.776
 2536W        W 3533   7.427   5.868   5.386
 2537W        W 3534   3.631   1.802   1.909
 2538W        W 3535   6.135   6.631   1.730
 2539W        W 3536   2.699   5.967   2.895
 2540W        W 3537   3.564   6.187   0.367
 2541W        W 3538   5.507   4.255   4.192
 2542W        W 3539   1.805   2.832   0.673
 2543W        W 3540   4.107   6.316   6.394
 2544W        W 3541   5.175   5.829   1.432
 2545W        W 3542   4.507   4.856   2.579
 2546W        W 3543   4.318   3.607   4.276
 2547W        W 3544   2.792   1.814   5.423
 2548W        W 3545   3.923   4.594   2.583
 2549W        W 3546   1.532   1.768   4.377
 2550W        W 3547   2.364   5.254   1.758
 2551W        W 3548   5.544   3.241   3.504
 2552W        W 3549   4.236   6.943   6.999
 2553W        W 3550   4.224   1.371   6.148
 2554W        W 3551   2.813   0.714   6.964
 2555W        W 3552   5.851   7.641   7.122
 2556W        W 3553   7.635   5.161   6.512
 2557W        W 3554   0.961   3.164   5.348
 2558W        W 3555   3.601   5.151   7.424
 2559W        W 3556   3.024   5.656   1.991
 2560W        W 3557   0.973   2.053   1.974
 2561W        W 3558   2.547   3.582   6.244
 2562W        W 3559   4.149   2.888   3.546
 2563W        W 3560   6.109   1.355   5.733
 2564W        W 3561   7.263   5.733   3.402
 2565W        W 3562   2.148   3.786   6.466
 2566W        W 3563   1.559   2.659   4.393
 2567W        W 3564   3.615   5.515   2.619
 2568W        W 3565   5.289   0.574   6.872
 2569W        W 3566   7.489   3.080   2.822
 2570W        W 3567   3.140   3.840   5.675
 2571W        W 3568   6.747   2.544   2.234
 2572W        W 3569   2.649   5.994   0.889
 2573W        W 3570   5.432   1.802   3.888
 2574W        W 3571   6.507   1.091   7.711
 2575W        W 3572   3.037   3.234   2.459
 2576W        W 3573   1.091   6.775   4.017
 2577W        W 3574   3.006   3.016   0.720
 2578W        W 3575   4.989   1.816   3.234
 2579W        W 3576   6.873   6.328   7.085
 2580W        W 3577   2.931   6.707   5.117
 2581W        W 3578   5.176   6.136   0.985
 2582W        W 3579   6.665   4.943   5.046
 2583W        W 3580   4.148   5.193   3.297
 2584W        W 3581   6.521   4.028   6.644
 2585W        W 3582   6.727   5.840   7.855
 2586W        W 3583   6.068   5.785   0.549
 2587W        W 3584   4.710   6.271   0.800
 2588W        W 3585   4.911   0.531   4.573
 2589W        W 3586   7.815   1.673   1.466
 2590W        W 3587   1.041   5.870   6.106
 2591W        W 3588   3.501   5.657   6.960
 2592W        W 3589   4.354   1.733   0.444
 2593W        W 3590   0.900   4.867   6.247
 2594W        W 3591   3.439   4.721   3.591
 2595W        W 3592   6.235   2.597   5.973
 2596W        W 3593   0.795   3.229   6.969
 2597W        W 3594   1.445   4.819   3.972
 2598W        W 3595   4.509   5.134   4.634
 2599W        W 3596   5.281   2.731   5.643
 2600W        W 3597   1.455   2.234   2.244
 2601W        W 3598   5.205   2.263   5.879
 2602W        W 3599   2.804   6.999   1.071
 2603W        W 3600   0.448   4.354   7.339
 2604W        W 3601   1.689   1.443   7.128
 2605W        W 3602   1.443   0.875   5.108
 2606W        W 3603   3.847   2.630   4.541
 2607W        W 3604   1.624   5.197   3.245
 2608W        W 3605   1.977   6.891   5.842
 2609W        W 3606   3.408   6.098   3.907
 2610W        W 3607   5.059   1.935   5.097
 2611W        W 3608   7.081   4.720   6.767
 2612W        W 3609   2.973   4.370   0.861
 2613W        W 3610   7.115   6.002   6.691
 2614W        W 3611   5.674   1.443   0.252
 2615W        W 3612   5.224   3.221   7.763
 2616W        W 3613   4.791   4.343   2.072
 2617W        W 3614   5.919   1.129   2.374
 2618W        W 3615   0.605   5.363   7.198
 2619W        W 3616   6.668   7.106   5.345
 2620W        W 3617   1.763   2.305   0.596
 2621W        W 3618   4.351   4.375   2.720
 2622W        W 3619   3.733   6.745   6.974
 2623W        W 3620   7.132   3.127   4.582
 2624W        W 3621   1.727   7.209   6.774
 2625W        W 3622   3.465   2.709   7.525
 2626W        W 3623   2.793   5.407   2.636
 2627W        W 3624   6.328   6.990   2.064
 2628W        W 3625   4.545   1.224   3.838
 2629W        W 3626   3.159   6.746   2.710
 2630W        W 3627   2.288   3.917   1.341
 2631W        W 3628   0.930   4.223   3.214
 2632W        W 3629   1.529   3.048   6.781
 2633W        W 3630   1.024   2.335   4.399
 2634W        W 3631   6.155   3.175   1.821
 2635W        W 3632   4.589   3.117   5.047
 2636W        W 3633   3.094   7.027   5.879
 2637W        W 3634   5.831   5.732   3.672
 2638W        W 3635   3.268   6.782   7.184
 2639W        W 3636   2.540   2.185   0.602
 2640W        W 3637   2.210   3.851   5.969
 2641W        W 3638   1.659   2.691   5.871
 2642W        W 3639   5.512   0.914   2.197
 2643W        W 3640   4.741   2.966   3.732
 2644W        W 3641   6.143   2.729   7.785
 2645W        W 3642   1.030   5.123   7.051
 2646W        W 3643   0.688   2.663   1.246
 2647W        W 3644   0.981   5.913   2.693
 2648W        W 3645   3.872   4.177   2.916
 2649W        W 3646   3.287   2.305   1.326
 2650W        W 3647   5.953   2.583   1.361
 2651W        W 3648   6.896   5.579   7.412
 2652W        W 3649   5.169   6.261   7.594
 2653W        W 3650   5.011   7.996   2.598
 2654W        W 3651   7.366   2.854   2.160
 2655W        W 3652   4.179   3.437   0.427
 2656W        W 3653   1.576   7.881   2.649
 2657W        W 3654   3.271   4.281   5.935
 2658W        W 3655   0.391   4.754   1.640
 2659W        W 3656   4.953   4.997   3.830
 2660W        W 3657   0.888   4.086   6.488
 2661W        W 3658   4.099   6.325   2.130
 2662W        W 3659   4.864   1.331   2.064
 2663W        W 3660   3.167   7.402   2.980
 2664W        W 3661   5.441   5.163   2.213
 2665W        W 3662   4.479   5.558   3.045
 2666W        W 3663   1.174   4.998   1.387
 2667W        W 3664   4.422   6.220   5.076
 2668W        W 3665   7.386   5.427   3.846
 2669W        W 3666   4.366   6.356   1.643
 2670W        W 3667   4.463   1.933   7.954
 2671W        W 3668   1.163   1.025   1.797
 2672W        W 3669   3.607   1.788   3.636
 2673W        W 3670   7.199   1.465   2.645
 2674W        W 3671   4.551   5.078   3.031
 2675W        W 3672   0.479   3.038   5.320
 2676W        W 3673   2.433   5.883   4.771
 2677W        W 3674   4.727   0.812   7.132
 2678W        W 3675   1.105   6.543   3.579
 2679W        W 3676   5.086   7.246   4.855
 2680W        W 3677   1.215   2.594   4.789
 2681W        W 3678   5.497   3.187   4.521
 2682W        W 3679   3.740   6.949   5.304
 2683W        W 3680   2.872   6.084   1.758
 2684W        W 3681   1.232   2.252   2.799
 2685W        W 3682   4.782   3.641   3.102
 2686W        W 3683   4.520   6.735   4.305
 2687W        W 3684   2.257   0.179   1.969
 2688W        W 3685   3.599   4.268   2.409
 2689W        W 3686   4.130   3.150   5.845
 2690W        W 3687   6.299   6.599   3.029
 2691W        W 3688   6.514   7.454   3.561
 2692W        W 3689   5.350   6.395   3.843
 2693W        W 3690   1.432   5.746   5.810
 2694W        W 3691   4.654   5.058   7.366
 2695W        W 3692   6.641   5.890   0.852
 2696W        W 3693   2.281   1.060   3.000
 2697W        W 3694   6.566   1.791   7.337
 2698W        W 3695   1.255   6.932   2.397
 2699W        W 3696   2.322   2.798   2.394
 2700W        W 3697   5.301   6.809   7.769
 2701W        W 3698   5.258   2.243   1.985
 2702W        W 3699   0.131   1.967   2.243
 2703W        W 3700   1.975   2.422   2.304
 2704W        W 3701   6.848   4.162   4.313
 2705W        W 3702   5.794   7.204   3.470
 2706W        W 3703   3.298   4.452   1.240
 2707W        W 3704   1.582   4.469   6.885
 2708W        W 3705   1.265   3.744   6.412
 2709W        W 3706   6.635   2.934   1.914
 2710W        W 3707   2.037   0.739   1.030
 2711W        W 3708   2.695   6.627   3.385
 2712W        W 3709   4.216   4.757   6.694
 2713W        W 3710   6.653   1.447   0.409
 2714W        W 3711   6.861   1.282   1.744
 2715W        W 3712   1.541   6.956   0.914
 2716W        W 3713   5.844   3.444   4.177
 2717W        W 3714   1.243   0.980   4.558
 2718W        W 3715   3.626   6.484   7.422
 2719W        W 3716   5.066   3.921   5.033
 2720W        W 3717   0.579   5.395   3.902
 2721W        W 3718   2.062   4.488   1.787
 2722W        W 3719   2.293   2.013   7.051
 2723W        W 3720   6.589   5.841   7.085
 2724W        W 3721   1.813   6.376   0.289
 2725W        W 3722   6.507   4.743   6.240
 2726W        W 3723   1.862   6.102   0.713
 2727W        W 3724   2.861   5.861   6.558
 2728W        W 3725   4.201   3.905   6.194
 2729W        W 3726   6.798   6.224   0.377
 2730W        W 3727   5.086   6.278   2.636
 2731W        W 3728   2.199   7.200   2.939
 2732W        W 3729   2.629   1.018   1.305
 2733W        W 3730   1.710   1.348   6.225
 2734W        W 3731   5.682   2.824   5.326
 2735W        W 3732   4.706   1.957   2.844
 2736W        W 3733   1.488   1.689   3.380
 2737W        W 3734   6.949   7.915   6.891
 2738W        W 3735   6.416   5.749   2.954
 2739W        W 3736   4.300   7.953   2.327
 2740W        W 3737   3.534   5.872   0.762
 2741W        W 3738   0.411   2.795   2.825
 2742W        W 3739   2.802   1.676   2.319
 2743W        W 3740   3.375   0.497   2.107
 2744W        W 3741   3.124   5.904   0.424
 2745W        W 3742   6.262   4.756   0.389
 2746W        W 3743   3.259   1.942   5.561
 2747W        W 3744   1.873   7.231   3.340
 2748W        W 3745   5.093   6.683   0.233
 2749W        W 3746   1.065   6.243   0.942
 2750W        W 3747   4.421   2.198   7.528
 2751W        W 3748   1.020   6.010   5.610
 2752W        W 3749   3.167   5.539   6.332
 2753W        W 3750   2.168   2.076   5.416
 2754W        W 3751   2.773   0.559   6.084
 2755W        W 3752   1.194   2.616   1.324
 2756W        W 3753   0.538   5.774   1.406
 2757W        W 3754   7.354   2.401   1.406
 2758W        W 3755   4.563   2.384   4.677
 2759W        W 3756   3.473   0.721   5.451
 2760W        W 3757   0.591   2.222   2.277
 2761W        W 3758   6.678   2.664   6.229
 2762W        W 3759   5.226   7.147   6.216
 2763W        W 3760   6.731   4.889   5.558
 2764W        W 3761   6.809   7.524   5.574
 2765W        W 3762   5.360   6.332   3.332
 2766W        W 3763   2.500   3.323   4.309
 2767W        W 3764   3.272   7.173   1.176
 2768W        W 3765   4.207   4.015   4.805
 2769W        W 3766   5.441   6.838   5.497
 2770W        W 3767   1.153   6.348   6.494
 2771W        W 3768   2.846   1.395   1.858
 2772W        W 3769   2.557   2.818   1.817
 2773W        W 3770   0.476   3.951   1.034
 2774W        W 3771   4.794   6.709   5.945
 2775W        W 3772   0.049   4.031   1.370
 2776W        W 3773   5.274   4.205   2.075
 2777W        W 3774   2.560   3.638   6.766
 2778W        W 3775   7.890   5.917   4.028
 2779W        W 3776   1.800   2.295   1.849
 2780W        W 3777   1.576   3.852   6.796
 2781W        W 3778   3.924   1.084   1.134
 2782W        W 3779   0.903   5.300   5.008
 2783W        W 3780   6.061   1.427   2.766
 2784W        W 3781   5.671   5.170   5.138
 2785W        W 3782   4.329   3.399   2.939
 2786W        W 3783   2.166   5.497   3.741
 2787W        W 3784   1.418   3.395   5.414
 2788W        W 3785   7.430   1.386   6.941
 2789W        W 3786   2.598   1.844   1.819
 2790W        W 3787   3.262   0.688   6.119
 2791W        W 3788   2.853   3.488   3.994
 2792W        W 3789   3.367   3.500   7.911
 2793W        W 3790   3.841   6.629   6.097
 2794W        W 3791   2.459   0.933   0.777
 2795W        W 3792   0.737   5.728   5.291
 2796W        W 3793   3.968   6.649   4.377
 2797W        W 3794   3.342   6.229   5.721
 2798W        W 3795   5.273   3.397   6.288
 2799W        W 3796   7.893   5.744   5.201
 2800W        W 3797   2.401   6.597   4.564
 2801W        W 3798   5.823   1.269   3.219
 2802W        W 3799   1.269   6.243   1.912
 2803W        W 3800   1.144   4.364   0.673
 2804W        W 3801   4.947   4.310   6.860
 2805W        W 3802   5.046   3.522   7.252
 2806W        W 3803   2.973   7.486   0.910
 2807W        W 3804   4.953   7.768   1.036
 2808W        W 3805   4.485   5.842   0.623
 2809W        W 3806   7.794   6.142   1.709
 2810W        W 3807   6.696   0.318   6.697
 2811W        W 3808   7.855   0.989   5.338
 2812W        W 3809   0.744   0.816   7.635
 2813W        W 3810   3.975   7.136   6.020
 2814W        W 3811   6.709   6.165   2.982
 2815W        W 3812   4.332   5.488   1.330
 2816W        W 3813   3.616   4.058   1.303
 2817W        W 3814   3.734   3.715   2.162
 2818W        W 3815   3.941   3.604   4.607
 2819W        W 3816   4.554   1.226   7.649
 2820W        W 3817   1.652   3.775   0.668
 2821W        W 3818   5.620   0.391   1.279
 2822W        W 3819   5.366   2.758   4.235
 2823W        W 3820   3.972   1.993   7.695
 2824W        W 3821   4.728   0.950   4.821
 2825W        W 3822   3.000   2.761   7.315
 2826W        W 3823   1.968   7.512   1.319
 2827W        W 3824   7.061   4.820   4.544
 2828W        W 3825   6.023   2.213   1.000
 2829W        W 3826   2.559   4.069   6.480
 2830W        W 3827   5.860   0.317   3.512
 2831W        W 3828   4.070   6.199   0.750
 2832W        W 3829   5.328   1.705   4.721
 2833W        W 3830   4.525   5.132   1.686
 2834W        W 3831   4.455   7.418   5.190
 2835W        W 3832   3.925   0.743   4.299
 2836W        W 3833   6.237   4.942   6.962
 2837W        W 3834   1.791   0.979   2.855
 2838W        W 3835   2.886   5.202   6.060
 2839W        W 3836   0.306   7.086   1.251
 2840W        W 3837   1.173   1.225   5.390
 2841W        W 3838   4.031   3.947   3.372
 2842W        W 3839   6.579   2.953   5.824
 2843W        W 3840   6.332   6.229   1.471
 2844W        W 3841   0.385   0.936   5.184
 2845W        W 3842   1.286   3.520   0.395
 2846W        W 3843   2.805   6.381   2.564
 2847W        W 3844   3.562   2.242   2.412
 2848W        W 3845   1.619   4.750   2.714
 2849W        W 3846   4.634   5.845   0.105
 2850W        W 3847   4.588   7.212   1.777
 2851W        W 3848   4.649   3.629   2.605
 2852W        W 3849   1.020   5.877   1.290
 2853W        W 3850   5.034   3.303   3.492
 2854W        W 3851   6.931   6.301   3.795
 2855W        W 3852   3.766   5.852   3.362
 2856W        W 3853   2.375   2.840   4.631
 2857W        W 3854   5.715   0.803   3.624
 2858W        W 3855   0.759   5.946   4.184
 2859W        W 3856   7.344   6.452   6.324
 2860W        W 3857   6.720   2.242   3.161
 2861W        W 3858   2.459   7.293   5.028
 2862W        W 3859   0.585   2.722   2.351
 2863W        W 3860   6.789   4.324   6.972
 2864W        W 3861   4.960   1.229   7.307
 2865W        W 3862   6.374   0.469   4.741
 2866W        W 3863   3.851   2.517   6.095
 2867W        W 3864   6.224   6.902   2.557
 2868W        W 3865   2.560   7.560   5.447
 2869W        W 3866   6.667   3.302   4.393
 2870W        W 3867   6.313   5.415   6.726
 2871W        W 3868   7.785   3.581   3.204
 2872W        W 3869   6.245   1.273   6.711
 2873W        W 3870   2.483   0.228   3.703
 2874W        W 3871   3.800   6.316   1.728
 2875W        W 3872   6.902   2.313   2.689
 2876W        W 3873   3.318   7.257   3.461
 2877W        W 3874   5.447   3.209   3.992
 2878W        W 3875   3.139   4.384   4.401
 2879W        W 3876   5.389   5.276   7.210
 2880W        W 3877   3.642   2.260   3.196
 2881W        W 3878   5.809   0.675   1.871
 2882W        W 3879   2.840   2.392   4.310
 2883W        W 3880   4.589   5.283   3.547
 2884W        W 3881   2.332   7.613   6.221
 2885W        W 3882   6.776   6.394   1.702
 2886W        W 3883   3.696   4.061   4.618
 2887W        W 3884   4.088   6.884   1.086
 2888W        W 3885   6.255   6.152   3.297
 2889W        W 3886   4.307   3.158   7.894
 2890W        W 3887   5.804   2.888   4.766
 2891W        W 3888   6.877   2.692   3.013
 2892W        W 3889   6.893   1.172   6.159
 2893W        W 3890   3.269   2.664   4.314
 2894W        W 3891   4.109   1.970   7.174
 2895W        W 3892   5.626   1.948   0.834
 2896W        W 3893   7.718   4.730   6.079
 2897W        W 3894   0.286   2.404   1.428
 2898W        W 3895   1.497   6.053   6.252
 2899W        W 3896   0.457   3.795   1.532
 2900W        W 3897   5.488   2.008   7.450
 2901W        W 3898   4.035   4.169   5.289
 2902W        W 3899   6.467   1.201   7.205
 2903W        W 3900   6.681   6.500   3.373
 2904W        W 3901   3.993   1.415   4.774
 2905W        W 3902   7.055   1.897   2.405
 2906W        W 3903   2.192   4.870   1.461
 2907W        W 3904   2.129   2.950   5.077
 2908W        W 3905   5.231   3.208   5.516
 2909W        W 3906   3.606   3.050   4.316
 2910W        W 3907   4.011   6.814   6.545
 2911W        W 3908   4.185   2.203   6.698
 2912W        W 3909   3.934   4.695   3.466
 2913W        W 3910   5.306   0.390   3.113
 2914W        W 3911   3.142   3.140   4.506
 2915W        W 3912   2.045   7.412   5.833
 2916W        W 3913   6.190   1.786   6.587
 2917W        W 3914   4.954   2.679   0.375
 2918W        W 3915   0.494   2.290   7.092
 2919W        W 3916   0.109   3.219   2.022
 2920W        W 3917   6.619   3.460   1.889
 2921W        W 3918   4.728   6.990   0.512
 2922W        W 3919   1.066   0.629   2.872
 2923W        W 3920   1.477   1.230   3.200
 2924W        W 3921   2.407   2.011   4.312
 2925W        W 3922   3.322   1.346   4.009
 2926W        W 3923   6.147   7.348   4.247
 2927W        W 3924   6.242   6.339   7.293
 2928W        W 3925   4.694   3.840   6.949
 2929W        W 3926   4.767   5.577   1.943
 2930W        W 3927   3.462   6.514   5.259
 2931W        W 3928   1.567   2.156   6.580
 2932W        W 3929   5.591   5.947   1.815
 2933W        W 3930   0.909   5.071   7.539
 2934W        W 3931   0.599   5.657   2.415
 2935W        W 3932   6.171   7.428   6.743
 2936W        W 3933   4.391   2.719   4.347
 2937W        W 3934   6.950   4.123   2.752
 2938W        W 3935   6.361   1.232   5.282
 2939W        W 3936   7.848   4.561   2.519
 2940W        W 3937   4.531   4.773   3.933
 2941W        W 3938   6.721   0.143   3.706
 2942W        W 3939   5.248   5.835   5.987
 2943W        W 3940   1.634   0.890   7.692
 2944W        W 3941   6.619   6.457   4.195
 2945W        W 3942   7.967   3.972   3.467
 2946W        W 3943   7.651   5.237   3.459
 2947W        W 3944   0.124   5.747   1.737
 2948W        W 3945   4.836   0.803   6.160
 2949W        W 3946   1.178   0.218   6.493
 2950W        W 3947   7.309   5.415   2.158
 2951W        W 3948   3.144   5.615   5.805
 2952W        W 3949   2.003   2.491   4.573
 2953W        W 3950   3.849   4.702   7.458
 2954W        W 3951   3.253   0.931   3.482
 2955W        W 3952   3.927   1.577   2.730
 2956W        W 3953   5.827   6.265   0.713
 2957W        W 3954   1.942   2.705   2.720
 2958W        W 3955   1.328   4.523   0.224
 2959W        W 3956   3.435   1.322   7.269
 2960W        W 3957   1.642   4.286   0.566
 2961W        W 3958   4.478   6.831   1.447
 2962W        W 3959   5.227   3.651   1.933
 2963W        W 3960   6.857   5.045   4.099
 2964W        W 3961   7.092   1.659   0.249
 2965W        W 3962   3.062   1.519   6.577
 2966W        W 3963   6.950   6.274   4.887
 2967W        W 3964   6.453   5.826   1.850
 2968W        W 3965   6.531   1.001   0.198
 2969W        W 3966   7.435   6.415   2.883
 2970W        W 3967   6.633   5.925   6.552
 2971W        W 3968   1.909   4.336   7.590
 2972W        W 3969   1.689   7.313   2.847
 2973W        W 3970   7.165   5.202   5.613
 2974W        W 3971   5.930   5.249   5.550
 2975W        W 3972   0.245   4.883   2.918
 2976W        W 3973   0.416   1.751   5.468
 2977W        W 3974   3.604   1.586   6.337
 2978W        W 3975   5.046   7.091   5.730
 2979W        W 3976   1.837   3.319   0.895
 2980W        W 3977   7.486   0.668   6.400
 2981W        W 3978   5.832   1.817   5.472
 2982W        W 3979   4.470   5.556   6.413
 2983W        W 3980   0.372   1.570   7.165
 2984W        W 3981   3.021   6.358   6.590
 2985W        W 3982   2.090   6.169   4.480
 2986W        W 3983   4.374   5.976   1.111
 2987W        W 3984   5.092   1.766   1.936
 2988W        W 3985   7.748   6.322   1.227
 2989W        W 3986   1.924   0.617   3.271
 2990W        W 3987   2.356   6.809   0.930
 2991W        W 3988   5.983   0.554   0.929
 2992W        W 3989   4.918   1.956   5.584
 2993W        W 3990   0.755   4.597   2.913
 2994W        W 3991   3.364   5.348   7.864
 2995W        W 3992   5.780   5.729   6.057
 2996W        W 3993   6.678   5.383   0.069
 2997W        W 3994   4.582   3.005   6.075
 2998W        W 3995   1.798   6.960   2.485
 2999W        W 3996   7.393   5.116   6.062
 3000W        W 3997   5.675   3.471   1.713
 3001W        W 3998   5.618   0.581   5.209
 3002W        W 3999   6.950   6.141   6.210
 3003W        W 4000   4.862   2.485   2.141
 3004W        W 4001   6.855   1.117   2.777
 3005W        W 4002   4.268   2.785   4.823
 3006W        W 4003   6.521   1.453   1.385
 3007W        W 4004   3.092   3.344   3.215
 3008W        W 4005   1.209   0.147   3.192
 3009W        W 4006   0.513   1.368   0.709
 3010W        W 4007   0.489   5.538   3.094
 3011W        W 4008   6.946   5.276   4.742
 3012W        W 4009   4.468   1.717   5.850
 3013W        W 4010   7.122   1.560   4.860
 3014W        W 4011   0.737   6.251   3.757
 3015W        W 4012   3.854   1.600   0.440
 3016W        W 4013   6.109   1.143   3.619
 3017W        W 4014   6.089   0.749   3.303
 3018W        W 4015   3.063   0.916   3.957
 3019W        W 4016   0.686   1.354   5.305
 3020W        W 4017   7.056   2.796   2.543
 3021W        W 4018   3.347   1.449   0.351
 3022W        W 4019   3.521   6.738   5.732
 3023W        W 4020   1.123   6.613   4.974
 3024W        W 4021   3.479   6.033   1.290
 3025W        W 4022   1.962   6.729   3.753
 3026W        W 4023   0.611   3.679   4.483
 3027W        W 4024   7.830   3.736   3.927
 3028W        W 4025   3.111   0.933   1.829
 3029W        W 4026   0.738   0.266   3.016
 3030W        W 4027   2.050   7.094   1.650
 3031W        W 4028   5.980   6.764   4.847
 3032W        W 4029   5.680   5.743   6.916
 3033W        W 4030   3.475   4.692   1.666
 3034W        W 4031   4.748   2.089   6.047
 3035W        W 4032   5.212   7.675   6.422
 3036W        W 4033   5.765   3.776   0.880
 3037W        W 4034   4.082   5.114   0.351
 3038W        W 4035   4.422   3.248   1.210
 3039W        W 4036   6.415   7.012   4.902
 3040W        W 4037   4.452   3.763   1.231
 3041W        W 4038   4.452   3.690   3.470
 3042W        W 4039   5.763   2.697   5.815
 3043W        W 4040   7.423   2.865   4.197
 3044W        W 4041   5.316   6.036   2.240
 3045W        W 4042   3.508   3.723   1.694
 3046W        W 4043   5.191   1.308   0.639
 3047W        W 4044   4.548   3.822   5.164
 3048W        W 4045   4.064   6.788   5.655
 3049W        W 4046   2.725   5.191   2.148
 3050W        W 4047   4.947   2.424   5.439
 3051W        W 4048   5.897   7.007   1.004
 3052W        W 4049   2.631   3.213   0.332
 3053W        W 4050   1.922   2.628   5.432
 3054W        W 4051   6.623   7.246   4.028
 3055W        W 4052   7.192   2.945   3.755
 3056W        W 4053   1.064   4.769   5.006
 3057W        W 4054   0.746   4.420   3.648
 3058W        W 4055   7.576   1.661   6.527
 3059W        W 4056   5.184   5.347   3.551
 3060W        W 4057   3.903   1.722   1.459
 3061W        W 4058   6.337   4.194   4.430
 3062W        W 4059   4.692   4.773   6.901
 3063W        W 4060   6.733   2.270   7.477
 3064W        W 4061   3.008   2.978   1.632
 3065W        W 4062   6.042   2.116   6.193
 3066W        W 4063   4.961   2.906   2.428
 3067W        W 4064   1.552   2.778   7.210
 3068W        W 4065   1.833   0.283   0.904
 3069W        W 4066   5.111   6.792   2.546
 3070W        W 4067   1.006   2.255   7.152
 3071W        W 4068   1.093   6.890   5.809
 3072W        W 4069   6.044   7.392   6.247
 3073W        W 4070   4.825   7.058   5.263
 3074W        W 4071   3.921   7.161   2.394
 3075W        W 4072   2.016   6.127   6.388
 3076W        W 4073   3.171   4.298   5.432
 3077W        W 4074   5.543   7.394   2.195
 3078W        W 4075   4.777   3.109   7.440
 3079W        W 4076   3.988   2.826   4.056
 3080W        W 4077   4.034   6.799   7.445
 3081W        W 4078   3.084   4.219   6.418
 3082W        W 4079   4.566   4.038   4.427
 3083W        W 4080   6.625   2.268   3.703
 3084W        W 4081   7.486   4.851   1.244
 3085W        W 4082   7.272   1.005   3.039
 3086W        W 4083   2.599   4.480   7.088
 3087W        W 4084   6.119   2.289   0.061
 3088W        W 4085   5.310   6.709   5.963
 3089W        W 4086   2.382   3.353   7.149
 3090W        W 4087   3.608   6.315   2.247
 3091W        W 4088   1.069   6.747   0.855
 3092W        W 4089   2.698   3.158   5.744
 3093W        W 4090   7.088   7.354   4.245
 3094W        W 4091   6.377   1.838   0.841
 3095W        W 4092   1.717   6.391   3.427
 3096W        W 4093   2.061   3.640   6.919
 3097W        W 4094   4.053   3.672   5.172
 3098W        W 4095   6.318   0.538   1.858
 3099W        W 4096   7.220   0.292   6.625
 3100W        W 4097   3.972   1.946   3.931
 3101W        W 4098   4.896   6.809   6.435
 3102W        W 4099   1.711   4.269   2.681
 3103W        W 4100   2.619   0.216   2.346
 3104W        W 4101   0.282   4.649   6.824
 3105W        W 4102   5.172   0.056   6.009
 3106W        W 4103   5.412   3.872   6.246
 3107W        W 4104   6.165   5.283   4.520
 3108W        W 4105   6.531   1.923   1.656
 3109W        W 4106   0.849   2.510   0.782
 3110W        W 4107   1.872   4.504   4.370
 3111W        W 4108   4.702   4.223   4.877
 3112W        W 4109   0.962   6.495   2.201
 3113W        W 4110   2.189   2.433   5.057
 3114W        W 4111   0.098   2.838   2.421
 3115W        W 4112   2.360   2.935   3.382
 3116W        W 4113   4.799   3.362   6.395
 3117W        W 4114   0.102   6.302   2.480
 3118W        W 4115   0.207   3.721   2.860
 3119W        W 4116   2.420   0.587   3.241
 3120W        W 4117   1.454   5.206   7.333
 3121W        W 4118   6.027   2.662   1.886
 3122W        W 4119   7.446   2.487   3.638
 3123W        W 4120   7.806   6.340   6.124
 3124W        W 4121   7.228   3.852   4.040
 3125W        W 4122   2.397   6.612   2.327
 3126W        W 4123   1.502   6.223   5.660
 3127W        W 4124   4.580   2.947   6.591
 3128W        W 4125   7.434   1.959   1.739
 3129W        W 4126   6.204   4.980   1.190
 3130W        W 4127   5.077   1.910   4.225
 3131W        W 4128   2.271   2.619   1.457
 3132W        W 4129   4.246   0.846   5.800
 3133W        W 4130   1.220   6.990   5.325
 3134W        W 4131   6.843   3.629   2.335
 3135W        W 4132   1.704   6.476   6.053
 3136W        W 4133   3.878   5.316   7.912
 3137W        W 4134   3.913   2.245   1.993
 3138W        W 4135   2.597   0.973   1.800
 3139W        W 4136   2.527   0.895   5.175
 3140W        W 4137   1.846   4.658   6.473
 3141W        W 4138   2.134   1.648   5.083
 3142W        W 4139   6.763   6.636   6.127
 3143W        W 4140   6.896   6.461   6.593
 3144W        W 4141   6.086   3.931   4.783
 3145W        W 4142   0.718   6.773   1.227
 3146W        W 4143   5.080   7.276   2.389
 3147W        W 4144   3.235   5.455   4.874
 3148W        W 4145   5.984   6.785   7.308
 3149W        W 4146   6.605   6.975   2.872
 3150W        W 4147   7.652   0.968   0.866
 3151W        W 4148   0.791   1.817   6.974
 3152W        W 4149   1.208   3.459   5.865
 3153W        W 4150   0.122   3.986   1.897
 3154W        W 4151   7.100   3.634   2.776
 3155W        W 4152   7.350   3.816   2.345
 3156W        W 4153   3.543   7.264   5.715
 3157W        W 4154   4.360   0.842   6.782
 3158W        W 4155   5.887   4.692   7.239
 3159W        W 4156   6.509   0.987   3.900
 3160W        W 4157   3.662   7.543   3.156
 3161W        W 4158   2.465   3.078   6.183
 3162W        W 4159   1.901   3.750   4.704
 3163W        W 4160   1.419   6.683   4.400
 3164W        W 4161   7.302   1.289   5.876
 3165W        W 4162   5.728   1.227   6.672
 3166W        W 4163   4.443   6.041   3.744
 3167W        W 4164   0.717   3.331   5.752
 3168W        W 4165   5.359   5.410   4.802
 3169W        W 4166   1.348   6.177   2.955
 3170W        W 4167   2.922   6.391   7.184
 3171W        W 4168   7.033   0.295   2.542
 3172W        W 4169   1.082   4.564   6.632
 3173W        W 4170   2.183   4.406   1.290
 3174W        W 4171   0.983   1.959   2.482
 3175W        W 4172   6.068   0.664   1.421
 3176W        W 4173   2.495   6.976   1.943
 3177W        W 4174   1.000   6.460   2.716
 3178W        W 4175   3.542   7.382   0.783
 3179W        W 4176   6.152   4.740   4.507
 3180W        W 4177   2.879   5.281   1.671
 3181W        W 4178   5.193   0.748   4.928
 3182W        W 4179   3.443   2.896   2.543
 3183W        W 4180   0.486   3.744   6.455
 3184W        W 4181   1.192   7.219   1.670
 3185W        W 4182   5.400   2.572   6.680
 3186W        W 4183   2.196   4.357   0.059
 3187W        W 4184   0.013   3.214   2.855
 3188W        W 4185   6.581   5.001   4.540
 3189W        W 4186   6.276   2.122   3.358
 3190W        W 4187   5.083   4.256   6.363
 3191W        W 4188   2.269   2.733   6.787
 3192W        W 4189   7.127   6.240   3.290
 3193W        W 4190   4.404   2.385   2.854
 3194W        W 4191   7.334   0.984   1.360
 3195W        W 4192   3.714   3.217   2.262
 3196W        W 4193   1.911   3.409   0.404
 3197W        W 4194   6.548   1.489   6.361
 3198W        W 4195   3.370   2.322   6.095
 3199W        W 4196   6.822   2.064   0.067
 3200W        W 4197   4.573   3.168   3.305
 3201W        W 4198   3.074   5.656   0.844
 3202W        W 4199   6.309   4.549   0.877
 3203W        W 4200   3.631   3.867   5.438
 3204W        W 4201   0.974   4.189   1.124
 3205W        W 4202   1.116   6.363   5.979
 3206W        W 4203   4.515   3.153   2.521
 3207W        W 4204   7.346   4.547   1.625
 3208W        W 4205   0.906   2.996   4.871
 3209W        W 4206   5.169   2.735   2.851
 3210W        W 4207   4.197   4.948   4.289
 3211W        W 4208   2.629   3.672   5.737
 3212W        W 4209   4.630   4.810   2.075
 3213W        W 4210   5.202   4.557   3.033
 3214W        W 4211   5.368   7.630   2.636
 3215W        W 4212   5.351   5.298   2.712
 3216W        W 4213   4.899   4.936   3.340
 3217W        W 4214   7.389   1.211   6.358
 3218W        W 4215   5.462   1.467   4.282
 3219W        W 4216   7.924   2.106   1.784
 3220W        W 4217   1.450   7.694   1.396
 3221W        W 4218   1.683   5.208   7.783
 3222W        W 4219   5.136   2.644   0.880
 3223W        W 4220   4.516   0.517   6.428
 3224W        W 4221   6.012   2.189   1.680
 3225W        W 4222   5.711   1.210   1.823
   8.00000   8.00000   8.00000
