Martini system from ../2_Creating_coordinates/TYR-GLN-TYR_aa.pdb
 4188
    1TYR     BB    1   4.103   6.983  -0.448
    1TYR    SC1    2   4.238   6.729  -0.330
    1TYR    SC2    3   4.350   6.838  -0.147
    1TYR    SC3    4   4.304   6.649  -0.001
    2GLN     BB    5   4.024   7.063  -0.088
    2GLN    SC1    6   3.801   7.393  -0.182
    3TYR     BB    7   4.172   7.212   0.157
    3TYR    SC1    8   4.251   6.985   0.321
    3TYR    SC2    9   4.366   7.072   0.514
    3TYR    SC3   10   4.258   6.907   0.657
    1TYR     BB   11   4.645  -0.004   2.715
    1TYR    SC1   12   4.536  -0.043   3.004
    1TYR    SC2   13   4.748  -0.088   3.109
    1TYR    SC3   14   4.680   0.037   3.306
    2GLN     BB   15   4.914   0.199   2.885
    2GLN    SC1   16   5.085   0.318   2.533
    3TYR     BB   17   5.199   0.141   3.024
    3TYR    SC1   18   5.131   0.165   3.306
    3TYR    SC2   19   5.332   0.125   3.433
    3TYR    SC3   20   5.273   0.303   3.588
    1TYR     BB   21   5.130   1.880   4.535
    1TYR    SC1   22   4.869   2.038   4.595
    1TYR    SC2   23   4.856   1.983   4.829
    1TYR    SC3   24   4.775   2.207   4.879
    2GLN     BB   25   5.251   2.033   4.857
    2GLN    SC1   26   5.630   1.883   4.818
    3TYR     BB   27   5.237   1.960   5.171
    3TYR    SC1   28   5.036   2.150   5.264
    3TYR    SC2   29   5.007   2.114   5.501
    3TYR    SC3   30   4.991   2.354   5.538
    1TYR     BB   31   6.972   7.534   2.554
    1TYR    SC1   32   6.694   7.425   2.642
    1TYR    SC2   33   6.776   7.233   2.764
    1TYR    SC3   34   6.604   7.263   2.933
    2GLN     BB   35   7.072   7.459   2.910
    2GLN    SC1   36   7.444   7.624   2.869
    3TYR     BB   37   7.184   7.205   3.074
    3TYR    SC1   38   6.946   7.122   3.221
    3TYR    SC2   39   7.005   6.930   3.353
    3TYR    SC3   40   6.873   7.013   3.539
    1TYR     BB   41   4.026   8.005   7.474
    1TYR    SC1   42   3.862   7.744   7.425
    1TYR    SC2   43   3.799   7.792   7.198
    1TYR    SC3   44   3.827   7.558   7.138
    2GLN     BB   45   4.167   7.935   7.131
    2GLN    SC1   46   4.434   8.244   7.148
    3TYR     BB   47   4.085   8.000   6.826
    3TYR    SC1   48   3.986   7.741   6.737
    3TYR    SC2   49   3.917   7.764   6.507
    3TYR    SC3   50   4.011   7.547   6.454
    1TYR     BB   51   7.641   2.250   3.737
    1TYR    SC1   52   7.711   2.536   3.634
    1TYR    SC2   53   7.688   2.488   3.399
    1TYR    SC3   54   7.589   2.707   3.362
    2GLN     BB   55   7.365   2.268   3.481
    2GLN    SC1   56   7.200   1.911   3.595
    3TYR     BB   57   7.331   2.202   3.167
    3TYR    SC1   58   7.328   2.471   3.053
    3TYR    SC2   59   7.304   2.448   2.814
    3TYR    SC3   60   7.152   2.637   2.809
    1TYR     BB   61   7.162   5.733   8.242
    1TYR    SC1   62   7.445   5.782   8.123
    1TYR    SC2   63   7.464   5.572   8.006
    1TYR    SC3   64   7.577   5.682   7.821
    2GLN     BB   65   7.081   5.605   7.897
    2GLN    SC1   66   6.684   5.553   7.979
    3TYR     BB   67   7.103   5.324   7.739
    3TYR    SC1   68   7.332   5.374   7.567
    3TYR    SC2   69   7.369   5.174   7.437
    3TYR    SC3   70   7.420   5.308   7.240
    1TYR     BB   71   7.588   5.093   4.379
    1TYR    SC1   72   7.890   5.147   4.426
    1TYR    SC2   73   7.866   5.264   4.636
    1TYR    SC3   74   8.068   5.158   4.721
    2GLN     BB   75   7.586   5.000   4.744
    2GLN    SC1   76   7.196   4.876   4.740
    3TYR     BB   77   7.552   5.154   5.026
    3TYR    SC1   78   7.826   5.158   5.123
    3TYR    SC2   79   7.826   5.270   5.336
    3TYR    SC3   80   7.987   5.110   5.423
    1TYR     BB   81   5.725   2.571   8.086
    1TYR    SC1   82   5.774   2.389   7.838
    1TYR    SC2   83   5.602   2.483   7.699
    1TYR    SC3   84   5.744   2.462   7.503
    2GLN     BB   85   5.701   2.847   7.831
    2GLN    SC1   86   5.670   3.142   8.113
    3TYR     BB   87   5.471   2.976   7.646
    3TYR    SC1   88   5.540   2.867   7.384
    3TYR    SC2   89   5.379   2.950   7.226
    3TYR    SC3   90   5.554   2.981   7.060
    1TYR     BB   91   3.412   5.080   6.577
    1TYR    SC1   92   3.330   5.380   6.593
    1TYR    SC2   93   3.528   5.457   6.706
    1TYR    SC3   94   3.527   5.662   6.575
    2GLN     BB   95   3.748   5.216   6.475
    2GLN    SC1   96   3.905   4.846   6.399
    3TYR     BB   97   4.015   5.318   6.625
    3TYR    SC1   98   3.992   5.606   6.593
    3TYR    SC2   99   4.184   5.706   6.699
    3TYR    SC3  100   4.203   5.868   6.519
    1TYR     BB  101   6.447   0.935   3.456
    1TYR    SC1  102   6.675   0.729   3.503
    1TYR    SC2  103   6.744   0.810   3.719
    1TYR    SC3  104   6.782   0.583   3.796
    2GLN     BB  105   6.360   0.864   3.815
    2GLN    SC1  106   6.022   1.095   3.807
    3TYR     BB  107   6.449   0.974   4.105
    3TYR    SC1  108   6.618   0.756   4.199
    3TYR    SC2  109   6.698   0.816   4.418
    3TYR    SC3  110   6.668   0.588   4.495
    1TYR     BB  111   0.367   7.384   2.617
    1TYR    SC1  112   0.665   7.406   2.531
    1TYR    SC2  113   0.754   7.454   2.750
    1TYR    SC3  114   0.950   7.318   2.703
    2GLN     BB  115   0.504   7.184   2.905
    2GLN    SC1  116   0.134   7.087   3.050
    3TYR     BB  117   0.621   7.246   3.199
    3TYR    SC1  118   0.906   7.206   3.156
    3TYR    SC2  119   1.018   7.248   3.366
    3TYR    SC3  120   1.168   7.061   3.327
    1TYR     BB  121   4.968   1.455   1.312
    1TYR    SC1  122   5.044   1.730   1.190
    1TYR    SC2  123   5.131   1.828   1.392
    1TYR    SC3  124   5.307   1.939   1.267
    2GLN     BB  125   5.304   1.479   1.482
    2GLN    SC1  126   5.280   1.104   1.644
    3TYR     BB  127   5.420   1.608   1.754
    3TYR    SC1  128   5.558   1.843   1.651
    3TYR    SC2  129   5.656   1.958   1.839
    3TYR    SC3  130   5.856   2.005   1.710
    1TYR     BB  131  -0.239   6.549   0.560
    1TYR    SC1  132  -0.386   6.475   0.824
    1TYR    SC2  133  -0.244   6.291   0.886
    1TYR    SC3  134  -0.258   6.355   1.120
    2GLN     BB  135   0.073   6.503   0.765
    2GLN    SC1  136   0.322   6.627   0.464
    3TYR     BB  137   0.267   6.258   0.847
    3TYR    SC1  138   0.189   6.214   1.124
    3TYR    SC2  139   0.322   6.032   1.209
    3TYR    SC3  140   0.348   6.146   1.421
    1TYR     BB  141   0.650   1.743   5.154
    1TYR    SC1  142   0.664   1.584   4.887
    1TYR    SC2  143   0.839   1.714   4.785
    1TYR    SC3  144   0.936   1.513   4.688
    2GLN     BB  145   1.026   1.728   5.138
    2GLN    SC1  146   1.075   1.902   5.506
    3TYR     BB  147   1.262   1.902   5.005
    3TYR    SC1  148   1.339   1.733   4.781
    3TYR    SC2  149   1.517   1.844   4.664
    3TYR    SC3  150   1.632   1.632   4.631
    1TYR     BB  151   6.588   4.250   4.685
    1TYR    SC1  152   6.720   4.427   4.904
    1TYR    SC2  153   6.745   4.625   4.770
    1TYR    SC3  154   6.690   4.765   4.961
    2GLN     BB  155   6.384   4.559   4.613
    2GLN    SC1  156   6.147   4.372   4.336
    3TYR     BB  157   6.415   4.824   4.432
    3TYR    SC1  158   6.476   5.025   4.634
    3TYR    SC2  159   6.505   5.235   4.521
    3TYR    SC3  160   6.388   5.351   4.700
    1TYR     BB  161   7.572   1.049   4.308
    1TYR    SC1  162   7.586   1.351   4.233
    1TYR    SC2  163   7.788   1.339   4.103
    1TYR    SC3  164   7.699   1.500   3.944
    2GLN     BB  165   7.660   0.995   3.945
    2GLN    SC1  166   7.620   0.588   3.969
    3TYR     BB  167   7.929   0.975   3.769
    3TYR    SC1  168   7.927   1.233   3.634
    3TYR    SC2  169   8.123   1.243   3.494
    3TYR    SC3  170   7.995   1.352   3.318
    1TYR     BB  171   2.867   5.864   2.361
    1TYR    SC1  172   2.987   5.858   2.648
    1TYR    SC2  173   2.802   5.965   2.759
    1TYR    SC3  174   2.829   5.819   2.951
    2GLN     BB  175   2.550   5.753   2.532
    2GLN    SC1  176   2.345   5.704   2.182
    3TYR     BB  177   2.301   5.894   2.679
    3TYR    SC1  178   2.361   5.841   2.959
    3TYR    SC2  179   2.186   5.940   3.091
    3TYR    SC3  180   2.186   5.748   3.240
    1TYR     BB  181   7.873   4.538   0.518
    1TYR    SC1  182   7.588   4.643   0.450
    1TYR    SC2  183   7.465   4.460   0.548
    1TYR    SC3  184   7.295   4.614   0.628
    2GLN     BB  185   7.722   4.460   0.855
    2GLN    SC1  186   8.078   4.341   1.017
    3TYR     BB  187   7.560   4.215   0.988
    3TYR    SC1  188   7.289   4.323   0.995
    3TYR    SC2  189   7.147   4.155   1.092
    3TYR    SC3  190   7.025   4.325   1.216
    1TYR     BB  191   5.011   2.835   3.041
    1TYR    SC1  192   5.060   2.565   2.895
    1TYR    SC2  193   5.300   2.560   2.923
    1TYR    SC3  194   5.294   2.320   2.960
    2GLN     BB  195   5.253   2.699   3.296
    2GLN    SC1  196   5.203   3.014   3.552
    3TYR     BB  197   5.573   2.694   3.336
    3TYR    SC1  198   5.636   2.419   3.265
    3TYR    SC2  199   5.874   2.390   3.288
    3TYR    SC3  200   5.841   2.170   3.384
    1TYR     BB  201   0.424   3.551   6.476
    1TYR    SC1  202   0.183   3.687   6.334
    1TYR    SC2  203   0.143   3.856   6.501
    1TYR    SC3  204   0.091   4.019   6.328
    2GLN     BB  205   0.537   3.905   6.540
    2GLN    SC1  206   0.893   3.790   6.707
    3TYR     BB  207   0.486   4.131   6.765
    3TYR    SC1  208   0.307   4.312   6.623
    3TYR    SC2  209   0.253   4.492   6.773
    3TYR    SC3  210   0.269   4.652   6.591
    1TYR     BB  211   6.345   4.504   1.789
    1TYR    SC1  212   6.047   4.427   1.740
    1TYR    SC2  213   6.058   4.424   1.500
    1TYR    SC3  214   5.909   4.232   1.493
    2GLN     BB  215   6.415   4.247   1.523
    2GLN    SC1  216   6.822   4.274   1.565
    3TYR     BB  217   6.432   4.241   1.201
    3TYR    SC1  218   6.182   4.107   1.133
    3TYR    SC2  219   6.171   4.091   0.893
    3TYR    SC3  220   6.078   3.867   0.910
    1TYR     BB  221   0.566   2.503   7.620
    1TYR    SC1  222   0.637   2.805   7.594
    1TYR    SC2  223   0.551   2.836   7.372
    1TYR    SC3  224   0.469   3.057   7.431
    2GLN     BB  225   0.237   2.607   7.467
    2GLN    SC1  226   0.070   2.235   7.508
    3TYR     BB  227   0.119   2.646   7.170
    3TYR    SC1  228   0.115   2.936   7.148
    3TYR    SC2  229   0.029   2.992   6.930
    3TYR    SC3  230  -0.099   3.176   7.023
    1TYR     BB  231   7.210   4.824   2.323
    1TYR    SC1  232   7.516   4.811   2.374
    1TYR    SC2  233   7.581   4.763   2.147
    1TYR    SC3  234   7.776   4.905   2.169
    2GLN     BB  235   7.306   5.024   2.019
    2GLN    SC1  236   6.919   5.109   1.918
    3TYR     BB  237   7.390   4.961   1.714
    3TYR    SC1  238   7.677   5.009   1.723
    3TYR    SC2  239   7.765   4.968   1.502
    3TYR    SC3  240   7.913   5.159   1.521
    1TYR     BB  241   3.192   3.266   7.520
    1TYR    SC1  242   3.053   3.413   7.756
    1TYR    SC2  243   3.111   3.254   7.927
    1TYR    SC3  244   3.146   3.434   8.087
    2GLN     BB  245   3.475   3.220   7.765
    2GLN    SC1  246   3.724   3.051   7.488
    3TYR     BB  247   3.556   3.007   7.993
    3TYR    SC1  248   3.492   3.156   8.235
    3TYR    SC2  249   3.545   3.014   8.423
    3TYR    SC3  250   3.635   3.204   8.545
    1TYR     BB  251   2.773   7.956   4.410
    1TYR    SC1  252   2.533   7.852   4.242
    1TYR    SC2  253   2.584   7.617   4.261
    1TYR    SC3  254   2.347   7.564   4.280
    2GLN     BB  255   2.683   7.675   4.644
    2GLN    SC1  256   2.960   7.784   4.925
    3TYR     BB  257   2.752   7.362   4.673
    3TYR    SC1  258   2.504   7.240   4.580
    3TYR    SC2  259   2.532   7.001   4.592
    3TYR    SC3  260   2.304   6.975   4.672
    1TYR     BB  261   1.311   6.515   1.716
    1TYR    SC1  262   1.201   6.614   1.990
    1TYR    SC2  263   1.145   6.397   2.079
    1TYR    SC3  264   1.218   6.465   2.300
    2GLN     BB  265   1.484   6.252   1.924
    2GLN    SC1  266   1.690   6.097   1.606
    3TYR     BB  267   1.412   5.960   2.041
    3TYR    SC1  268   1.367   6.022   2.323
    3TYR    SC2  269   1.310   5.815   2.433
    3TYR    SC3  270   1.445   5.878   2.626
    1TYR     BB  271   4.692   6.749   2.601
    1TYR    SC1  272   4.518   6.510   2.504
    1TYR    SC2  273   4.621   6.342   2.641
    1TYR    SC3  274   4.406   6.235   2.677
    2GLN     BB  275   4.633   6.603   2.944
    2GLN    SC1  276   4.819   6.911   3.138
    3TYR     BB  277   4.771   6.379   3.130
    3TYR    SC1  278   4.582   6.159   3.105
    3TYR    SC2  279   4.665   5.976   3.238
    3TYR    SC3  280   4.440   5.924   3.313
    1TYR     BB  281   0.142   0.533   6.990
    1TYR    SC1  282   0.370   0.598   7.191
    1TYR    SC2  283   0.354   0.395   7.320
    1TYR    SC3  284   0.596   0.387   7.342
    2GLN     BB  285   0.299   0.190   6.981
    2GLN    SC1  286   0.049   0.054   6.687
    3TYR     BB  287   0.277  -0.083   7.151
    3TYR    SC1  288   0.524  -0.074   7.304
    3TYR    SC2  289   0.531  -0.272   7.442
    3TYR    SC3  290   0.769  -0.298   7.399
    1TYR     BB  291   3.670   2.457   1.069
    1TYR    SC1  292   3.459   2.477   1.297
    1TYR    SC2  293   3.381   2.250   1.284
    1TYR    SC3  294   3.360   2.239   1.525
    2GLN     BB  295   3.758   2.128   1.231
    2GLN    SC1  296   4.076   2.060   0.982
    3TYR     BB  297   3.656   1.823   1.212
    3TYR    SC1  298   3.504   1.798   1.459
    3TYR    SC2  299   3.416   1.574   1.469
    3TYR    SC3  300   3.463   1.562   1.706
    1TYR     BB  301   2.313   2.828   5.750
    1TYR    SC1  302   2.530   2.628   5.650
    1TYR    SC2  303   2.641   2.598   5.862
    1TYR    SC3  304   2.674   2.362   5.814
    2GLN     BB  305   2.284   2.592   6.043
    2GLN    SC1  306   1.968   2.792   6.208
    3TYR     BB  307   2.430   2.551   6.327
    3TYR    SC1  308   2.596   2.318   6.274
    3TYR    SC2  309   2.717   2.267   6.476
    3TYR    SC3  310   2.684   2.029   6.440
    1TYR     BB  311   1.344   7.562   8.299
    1TYR    SC1  312   1.640   7.480   8.253
    1TYR    SC2  313   1.614   7.404   8.026
    1TYR    SC3  314   1.831   7.496   7.967
    2GLN     BB  315   1.373   7.714   7.955
    2GLN    SC1  316   1.000   7.883   7.968
    3TYR     BB  317   1.336   7.614   7.650
    3TYR    SC1  318   1.613   7.593   7.564
    3TYR    SC2  319   1.612   7.518   7.335
    3TYR    SC3  320   1.794   7.669   7.281
    1TYR     BB  321   6.973   2.796   6.276
    1TYR    SC1  322   6.942   2.544   6.097
    1TYR    SC2  323   6.742   2.615   5.983
    1TYR    SC3  324   6.822   2.518   5.775
    2GLN     BB  325   6.891   2.985   5.960
    2GLN    SC1  326   6.954   3.352   6.130
    3TYR     BB  327   6.624   3.082   5.808
    3TYR    SC1  328   6.612   2.892   5.588
    3TYR    SC2  329   6.416   2.945   5.457
    3TYR    SC3  330   6.538   2.902   5.251
    1TYR     BB  331   0.781   7.733   1.131
    1TYR    SC1  332   0.618   7.468   1.138
    1TYR    SC2  333   0.427   7.549   1.015
    1TYR    SC3  334   0.405   7.335   0.902
    2GLN     BB  335   0.674   7.745   0.769
    2GLN    SC1  336   0.900   8.075   0.685
    3TYR     BB  337   0.420   7.855   0.603
    3TYR    SC1  338   0.282   7.606   0.540
    3TYR    SC2  339   0.085   7.663   0.414
    3TYR    SC3  340   0.119   7.471   0.268
    1TYR     BB  341  -0.098   1.510   0.415
    1TYR    SC1  342  -0.111   1.216   0.516
    1TYR    SC2  343   0.053   1.239   0.691
    1TYR    SC3  344  -0.076   1.092   0.835
    2GLN     BB  345  -0.100   1.596   0.783
    2GLN    SC1  346  -0.121   1.999   0.716
    3TYR     BB  347   0.119   1.629   1.017
    3TYR    SC1  348   0.077   1.384   1.169
    3TYR    SC2  349   0.232   1.385   1.353
    3TYR    SC3  350   0.063   1.293   1.501
    1TYR     BB  351   7.032   2.700   1.487
    1TYR    SC1  352   6.965   2.755   1.188
    1TYR    SC2  353   7.114   2.590   1.095
    1TYR    SC3  354   6.951   2.536   0.923
    2GLN     BB  355   7.010   2.337   1.386
    2GLN    SC1  356   7.057   2.200   1.769
    3TYR     BB  357   7.209   2.115   1.264
    3TYR    SC1  358   7.116   2.102   0.988
    3TYR    SC2  359   7.252   1.940   0.873
    3TYR    SC3  360   7.058   1.856   0.754
    1TYR     BB  361   5.401   3.212   4.337
    1TYR    SC1  362   5.684   3.141   4.446
    1TYR    SC2  363   5.629   3.160   4.680
    1TYR    SC3  364   5.771   2.969   4.732
    2GLN     BB  365   5.279   2.980   4.608
    2GLN    SC1  366   4.888   3.003   4.490
    3TYR     BB  367   5.204   3.004   4.921
    3TYR    SC1  368   5.435   2.878   5.045
    3TYR    SC2  369   5.402   2.885   5.284
    3TYR    SC3  370   5.493   2.660   5.305
    1TYR     BB  371   4.247   4.140   2.933
    1TYR    SC1  372   3.943   4.089   2.971
    1TYR    SC2  373   3.945   4.086   3.212
    1TYR    SC3  374   3.731   4.202   3.218
    2GLN     BB  375   4.201   4.393   3.209
    2GLN    SC1  376   4.584   4.533   3.182
    3TYR     BB  377   4.205   4.392   3.531
    3TYR    SC1  378   3.921   4.410   3.592
    3TYR    SC2  379   3.898   4.411   3.832
    3TYR    SC3  380   3.723   4.579   3.818
    1TYR     BB  381   3.322   3.120   2.151
    1TYR    SC1  382   3.244   2.821   2.189
    1TYR    SC2  383   3.278   2.812   2.427
    1TYR    SC3  384   3.085   2.667   2.453
    2GLN     BB  385   3.112   3.174   2.460
    2GLN    SC1  386   3.145   3.582   2.445
    3TYR     BB  387   3.156   3.165   2.779
    3TYR    SC1  388   3.027   2.913   2.848
    3TYR    SC2  389   3.048   2.884   3.086
    3TYR    SC3  390   2.822   2.797   3.098
    1TYR     BB  391   4.133   7.645   5.180
    1TYR    SC1  392   4.174   7.876   5.385
    1TYR    SC2  393   3.944   7.947   5.394
    1TYR    SC3  394   3.963   7.989   5.633
    2GLN     BB  395   3.831   7.564   5.390
    2GLN    SC1  396   3.744   7.223   5.180
    3TYR     BB  397   3.522   7.655   5.402
    3TYR    SC1  398   3.523   7.828   5.636
    3TYR    SC2  399   3.299   7.910   5.666
    3TYR    SC3  400   3.318   7.884   5.907
    1TYR     BB  401   5.987   5.434   1.503
    1TYR    SC1  402   6.220   5.542   1.328
    1TYR    SC2  403   6.186   5.395   1.140
    1TYR    SC3  404   6.241   5.575   0.986
    2GLN     BB  405   5.791   5.444   1.181
    2GLN    SC1  406   5.438   5.339   1.359
    3TYR     BB  407   5.742   5.248   0.930
    3TYR    SC1  408   5.908   5.374   0.726
    3TYR    SC2  409   5.887   5.243   0.525
    3TYR    SC3  410   5.882   5.445   0.390
    1TYR     BB  411   3.880   6.060   3.501
    1TYR    SC1  412   4.080   6.246   3.352
    1TYR    SC2  413   3.965   6.453   3.397
    1TYR    SC3  414   4.178   6.567   3.427
    2GLN     BB  415   3.891   6.325   3.768
    2GLN    SC1  416   3.659   6.111   4.029
    3TYR     BB  417   3.737   6.601   3.832
    3TYR    SC1  418   3.939   6.797   3.758
    3TYR    SC2  419   3.846   7.016   3.797
    3TYR    SC3  420   4.058   7.095   3.885
    1TYR     BB  421   3.643   0.908   3.389
    1TYR    SC1  422   3.453   1.148   3.330
    1TYR    SC2  423   3.364   1.063   3.123
    1TYR    SC3  424   3.144   1.150   3.178
    2GLN     BB  425   3.348   0.698   3.285
    2GLN    SC1  426   3.532   0.345   3.379
    3TYR     BB  427   3.229   0.581   3.009
    3TYR    SC1  428   3.000   0.757   2.967
    3TYR    SC2  429   2.893   0.689   2.763
    3TYR    SC3  430   2.674   0.724   2.862
    1TYR     BB  431   1.238   0.230   3.388
    1TYR    SC1  432   1.426   0.408   3.559
    1TYR    SC2  433   1.263   0.473   3.724
    1TYR    SC3  434   1.430   0.459   3.900
    2GLN     BB  435   1.120   0.100   3.721
    2GLN    SC1  436   0.877  -0.185   3.555
    3TYR     BB  437   0.899   0.183   3.941
    3TYR    SC1  438   1.068   0.297   4.150
    3TYR    SC2  439   0.923   0.369   4.329
    3TYR    SC3  440   1.083   0.289   4.493
    1TYR     BB  441   1.447   6.977   2.707
    1TYR    SC1  442   1.605   6.785   2.520
    1TYR    SC2  443   1.757   6.702   2.687
    1TYR    SC3  444   1.747   6.479   2.589
    2GLN     BB  445   1.456   6.688   2.949
    2GLN    SC1  446   1.218   6.874   3.224
    3TYR     BB  447   1.658   6.576   3.174
    3TYR    SC1  448   1.774   6.346   3.038
    3TYR    SC2  449   1.932   6.245   3.189
    3TYR    SC3  450   1.860   6.023   3.120
    1TYR     BB  451   4.015   1.252   4.524
    1TYR    SC1  452   3.763   1.401   4.629
    1TYR    SC2  453   3.771   1.316   4.854
    1TYR    SC3  454   3.700   1.531   4.941
    2GLN     BB  455   4.169   1.359   4.851
    2GLN    SC1  456   4.539   1.215   4.756
    3TYR     BB  457   4.183   1.246   5.152
    3TYR    SC1  458   3.995   1.422   5.288
    3TYR    SC2  459   3.987   1.356   5.520
    3TYR    SC3  460   3.979   1.589   5.589
    1TYR     BB  461   3.314   3.991   0.982
    1TYR    SC1  462   3.485   4.237   1.068
    1TYR    SC2  463   3.478   4.352   0.856
    1TYR    SC3  464   3.461   4.566   0.970
    2GLN     BB  465   3.094   4.250   0.819
    2GLN    SC1  466   2.809   3.977   0.708
    3TYR     BB  467   3.082   4.403   0.535
    3TYR    SC1  468   3.180   4.667   0.609
    3TYR    SC2  469   3.180   4.803   0.410
    3TYR    SC3  470   3.100   4.994   0.536
    1TYR     BB  471   2.957   7.093   0.956
    1TYR    SC1  472   2.709   7.216   1.098
    1TYR    SC2  473   2.756   7.129   1.318
    1TYR    SC3  474   2.678   7.335   1.420
    2GLN     BB  475   3.144   7.210   1.262
    2GLN    SC1  476   3.510   7.103   1.113
    3TYR     BB  477   3.210   7.094   1.555
    3TYR    SC1  478   3.027   7.249   1.720
    3TYR    SC2  479   3.058   7.179   1.949
    3TYR    SC3  480   3.038   7.409   2.025
    1TYR     BB  481   6.631   1.882   2.707
    1TYR    SC1  482   6.564   1.852   2.405
    1TYR    SC2  483   6.765   1.735   2.342
    1TYR    SC3  484   6.640   1.595   2.188
    2GLN     BB  485   6.742   1.523   2.680
    2GLN    SC1  486   6.815   1.486   3.081
    3TYR     BB  487   7.011   1.365   2.599
    3TYR    SC1  488   6.942   1.268   2.333
    3TYR    SC2  489   7.131   1.144   2.250
    3TYR    SC3  490   6.984   0.977   2.154
    1TYR     BB  491   5.031   0.618   2.019
    1TYR    SC1  492   5.164   0.468   1.781
    1TYR    SC2  493   5.016   0.278   1.781
    1TYR    SC3  494   5.020   0.271   1.538
    2GLN     BB  495   4.708   0.523   1.849
    2GLN    SC1  496   4.476   0.734   2.111
    3TYR     BB  497   4.508   0.270   1.849
    3TYR    SC1  498   4.572   0.146   1.594
    3TYR    SC2  499   4.433  -0.049   1.571
    3TYR    SC3  500   4.398  -0.000   1.335
    1TYR     BB  501   4.507   5.741   7.694
    1TYR    SC1  502   4.788   5.757   7.827
    1TYR    SC2  503   4.908   5.636   7.657
    1TYR    SC3  504   5.099   5.784   7.681
    2GLN     BB  505   4.694   5.826   7.378
    2GLN    SC1  506   4.354   5.857   7.153
    3TYR     BB  507   4.852   5.665   7.148
    3TYR    SC1  508   5.129   5.724   7.217
    3TYR    SC2  509   5.269   5.612   7.057
    3TYR    SC3  510   5.419   5.803   7.049
    1TYR     BB  511   1.252   4.123   3.453
    1TYR    SC1  512   1.232   4.381   3.280
    1TYR    SC2  513   1.383   4.311   3.106
    1TYR    SC3  514   1.243   4.418   2.938
    2GLN     BB  515   1.223   3.945   3.121
    2GLN    SC1  516   1.207   3.574   3.292
    3TYR     BB  517   1.424   3.848   2.889
    3TYR    SC1  518   1.371   4.047   2.682
    3TYR    SC2  519   1.512   3.995   2.494
    3TYR    SC3  520   1.333   4.048   2.340
    1TYR     BB  521   1.695   1.969   1.521
    1TYR    SC1  522   1.614   1.678   1.449
    1TYR    SC2  523   1.437   1.734   1.296
    1TYR    SC3  524   1.499   1.549   1.151
    2GLN     BB  525   1.664   2.029   1.150
    2GLN    SC1  526   1.802   2.413   1.172
    3TYR     BB  527   1.429   2.107   0.943
    3TYR    SC1  528   1.380   1.851   0.813
    3TYR    SC2  529   1.205   1.884   0.651
    3TYR    SC3  530   1.319   1.739   0.493
    1TYR     BB  531  -0.063   0.120   5.376
    1TYR    SC1  532  -0.228   0.271   5.160
    1TYR    SC2  533  -0.062   0.437   5.108
    1TYR    SC3  534  -0.121   0.427   4.872
    2GLN     BB  535   0.220   0.155   5.130
    2GLN    SC1  536   0.478  -0.070   5.355
    3TYR     BB  537   0.445   0.375   5.061
    3TYR    SC1  538   0.339   0.488   4.814
    3TYR    SC2  539   0.493   0.659   4.741
    3TYR    SC3  540   0.466   0.589   4.510
    1TYR     BB  541   7.942   3.019   4.692
    1TYR    SC1  542   7.846   2.784   4.513
    1TYR    SC2  543   7.677   2.906   4.393
    1TYR    SC3  544   7.731   2.788   4.189
    2GLN     BB  545   7.924   3.219   4.373
    2GLN    SC1  546   8.084   3.556   4.543
    3TYR     BB  547   7.699   3.386   4.213
    3TYR    SC1  548   7.639   3.203   3.993
    3TYR    SC2  549   7.470   3.308   3.857
    3TYR    SC3  550   7.580   3.229   3.655
    1TYR     BB  551   3.620   3.029   5.290
    1TYR    SC1  552   3.913   2.995   5.189
    1TYR    SC2  553   4.011   2.948   5.404
    1TYR    SC3  554   4.160   2.785   5.303
    2GLN     BB  555   3.695   2.721   5.495
    2GLN    SC1  556   3.312   2.688   5.635
    3TYR     BB  557   3.825   2.656   5.782
    3TYR    SC1  558   4.087   2.556   5.705
    3TYR    SC2  559   4.206   2.500   5.908
    3TYR    SC3  560   4.297   2.301   5.803
    1TYR     BB  561   6.651   0.523   5.006
    1TYR    SC1  562   6.893   0.339   4.939
    1TYR    SC2  563   6.790   0.131   5.000
    1TYR    SC3  564   6.898   0.019   4.814
    2GLN     BB  565   6.449   0.255   4.832
    2GLN    SC1  566   6.099   0.466   4.857
    3TYR     BB  567   6.308  -0.023   4.914
    3TYR    SC1  568   6.492  -0.216   4.798
    3TYR    SC2  569   6.407  -0.436   4.847
    3TYR    SC3  570   6.469  -0.513   4.625
    1TYR     BB  571   7.527   7.073   4.480
    1TYR    SC1  572   7.578   6.792   4.605
    1TYR    SC2  573   7.640   6.870   4.825
    1TYR    SC3  574   7.523   6.683   4.927
    2GLN     BB  575   7.350   7.144   4.805
    2GLN    SC1  576   7.219   7.512   4.685
    3TYR     BB  577   7.430   7.249   5.099
    3TYR    SC1  578   7.419   7.002   5.253
    3TYR    SC2  579   7.477   7.056   5.480
    3TYR    SC3  580   7.305   6.905   5.563
    1TYR     BB  581   5.401   7.916   4.030
    1TYR    SC1  582   5.155   8.023   3.872
    1TYR    SC2  583   5.112   7.822   3.747
    1TYR    SC3  584   4.872   7.857   3.768
    2GLN     BB  585   5.189   7.607   4.075
    2GLN    SC1  586   5.459   7.425   4.323
    3TYR     BB  587   5.131   7.336   3.911
    3TYR    SC1  588   4.866   7.390   3.803
    3TYR    SC2  589   4.800   7.198   3.674
    3TYR    SC3  590   4.573   7.215   3.759
    1TYR     BB  591   6.206   1.922   4.864
    1TYR    SC1  592   6.452   1.876   5.048
    1TYR    SC2  593   6.581   2.064   4.971
    1TYR    SC3  594   6.661   2.105   5.197
    2GLN     BB  595   6.247   2.283   4.964
    2GLN    SC1  596   5.908   2.405   4.770
    3TYR     BB  597   6.418   2.537   4.861
    3TYR    SC1  598   6.625   2.553   5.065
    3TYR    SC2  599   6.768   2.739   5.009
    3TYR    SC3  600   6.784   2.801   5.243
    1TYR     BB  601   2.929   2.504   4.140
    1TYR    SC1  602   2.891   2.629   4.422
    1TYR    SC2  603   3.087   2.531   4.523
    1TYR    SC3  604   3.127   2.735   4.649
    2GLN     BB  605   3.290   2.603   4.187
    2GLN    SC1  606   3.398   2.491   3.808
    3TYR     BB  607   3.554   2.473   4.319
    3TYR    SC1  608   3.576   2.628   4.565
    3TYR    SC2  609   3.769   2.547   4.684
    3TYR    SC3  610   3.828   2.774   4.748
    1TYR     BB  611   2.197   5.324   6.006
    1TYR    SC1  612   1.904   5.371   6.099
    1TYR    SC2  613   1.956   5.448   6.321
    1TYR    SC3  614   1.777   5.611   6.310
    2GLN     BB  615   2.263   5.655   6.173
    2GLN    SC1  616   2.653   5.671   6.049
    3TYR     BB  617   2.336   5.759   6.469
    3TYR    SC1  618   2.081   5.872   6.554
    3TYR    SC2  619   2.110   5.958   6.777
    3TYR    SC3  620   1.974   6.152   6.724
    1TYR     BB  621   1.952   7.126   5.169
    1TYR    SC1  622   1.773   7.359   5.269
    1TYR    SC2  623   1.626   7.226   5.406
    1TYR    SC3  624   1.618   7.402   5.574
    2GLN     BB  625   1.942   7.014   5.529
    2GLN    SC1  626   2.206   6.707   5.470
    3TYR     BB  627   1.748   6.834   5.713
    3TYR    SC1  628   1.612   7.038   5.869
    3TYR    SC2  629   1.458   6.926   6.017
    3TYR    SC3  630   1.514   7.081   6.197
    1TYR     BB  631   1.352   5.071   2.704
    1TYR    SC1  632   1.573   4.852   2.696
    1TYR    SC2  633   1.446   4.688   2.574
    1TYR    SC3  634   1.644   4.622   2.450
    2GLN     BB  635   1.300   4.979   2.343
    2GLN    SC1  636   1.025   5.275   2.278
    3TYR     BB  637   1.128   4.761   2.178
    3TYR    SC1  638   1.336   4.572   2.100
    3TYR    SC2  639   1.230   4.396   1.974
    3TYR    SC3  640   1.418   4.390   1.820
    1TYR     BB  641   5.615   7.465   1.915
    1TYR    SC1  642   5.625   7.666   1.678
    1TYR    SC2  643   5.554   7.512   1.507
    1TYR    SC3  644   5.423   7.687   1.400
    2GLN     BB  645   5.287   7.359   1.762
    2GLN    SC1  646   5.196   7.102   2.066
    3TYR     BB  647   5.189   7.153   1.535
    3TYR    SC1  648   5.128   7.334   1.315
    3TYR    SC2  649   5.052   7.200   1.130
    3TYR    SC3  650   4.881   7.365   1.077
    1TYR     BB  651   4.930   3.555   1.498
    1TYR    SC1  652   4.742   3.763   1.633
    1TYR    SC2  653   4.672   3.624   1.817
    1TYR    SC3  654   4.676   3.815   1.967
    2GLN     BB  655   5.047   3.489   1.851
    2GLN    SC1  656   5.342   3.230   1.734
    3TYR     BB  657   4.956   3.302   2.097
    3TYR    SC1  658   4.831   3.497   2.274
    3TYR    SC2  659   4.753   3.379   2.469
    3TYR    SC3  660   4.824   3.562   2.612
    1TYR     BB  661   6.962   7.768   6.883
    1TYR    SC1  662   7.202   7.862   7.056
    1TYR    SC2  663   7.075   7.926   7.250
    1TYR    SC3  664   7.249   7.841   7.397
    2GLN     BB  665   6.846   7.602   7.202
    2GLN    SC1  666   6.528   7.417   7.022
    3TYR     BB  667   6.674   7.685   7.461
    3TYR    SC1  668   6.883   7.715   7.661
    3TYR    SC2  669   6.777   7.779   7.868
    3TYR    SC3  670   6.926   7.634   7.993
    1TYR     BB  671   6.516   5.433   2.377
    1TYR    SC1  672   6.681   5.402   2.639
    1TYR    SC2  673   6.553   5.556   2.772
    1TYR    SC3  674   6.576   5.413   2.966
    2GLN     BB  675   6.218   5.413   2.607
    2GLN    SC1  676   5.946   5.413   2.301
    3TYR     BB  677   6.044   5.619   2.784
    3TYR    SC1  678   6.139   5.558   3.052
    3TYR    SC2  679   6.022   5.702   3.206
    3TYR    SC3  680   6.001   5.520   3.365
    1TYR     BB  681   2.067   5.179   7.041
    1TYR    SC1  682   2.354   5.302   7.043
    1TYR    SC2  683   2.384   5.297   7.282
    1TYR    SC3  684   2.618   5.237   7.254
    2GLN     BB  685   2.209   4.938   7.294
    2GLN    SC1  686   1.870   4.711   7.308
    3TYR     BB  687   2.249   4.930   7.613
    3TYR    SC1  688   2.535   4.979   7.637
    3TYR    SC2  689   2.590   4.977   7.871
    3TYR    SC3  690   2.796   4.857   7.825
    1TYR     BB  691   3.921   5.352   1.566
    1TYR    SC1  692   4.072   5.335   1.838
    1TYR    SC2  693   4.275   5.239   1.752
    1TYR    SC3  694   4.407   5.374   1.906
    2GLN     BB  695   4.250   5.482   1.435
    2GLN    SC1  696   4.102   5.563   1.063
    3TYR     BB  697   4.523   5.356   1.318
    3TYR    SC1  698   4.704   5.392   1.544
    3TYR    SC2  699   4.918   5.303   1.479
    3TYR    SC3  700   5.031   5.488   1.590
    1TYR     BB  701   1.235   5.303   7.156
    1TYR    SC1  702   1.427   5.519   7.271
    1TYR    SC2  703   1.372   5.485   7.503
    1TYR    SC3  704   1.604   5.520   7.566
    2GLN     BB  705   1.365   5.091   7.439
    2GLN    SC1  706   1.165   4.756   7.317
    3TYR     BB  707   1.292   5.042   7.749
    3TYR    SC1  708   1.507   5.188   7.882
    3TYR    SC2  709   1.473   5.166   8.119
    3TYR    SC3  710   1.712   5.140   8.154
    1TYR     BB  711   2.184   2.444   7.909
    1TYR    SC1  712   2.385   2.301   7.719
    1TYR    SC2  713   2.222   2.213   7.566
    1TYR    SC3  714   2.370   2.255   7.378
    2GLN     BB  715   2.021   2.557   7.589
    2GLN    SC1  716   1.749   2.796   7.780
    3TYR     BB  717   1.800   2.442   7.384
    3TYR    SC1  718   1.968   2.359   7.161
    3TYR    SC2  719   1.823   2.267   6.991
    3TYR    SC3  720   1.954   2.374   6.817
    1TYR     BB  721   1.164   0.675   0.552
    1TYR    SC1  722   1.471   0.701   0.509
    1TYR    SC2  723   1.495   0.920   0.606
    1TYR    SC3  724   1.707   0.857   0.705
    2GLN     BB  725   1.238   0.814   0.894
    2GLN    SC1  726   0.854   0.770   1.026
    3TYR     BB  727   1.268   1.107   1.027
    3TYR    SC1  728   1.557   1.126   1.057
    3TYR    SC2  729   1.605   1.341   1.156
    3TYR    SC3  730   1.777   1.241   1.296
    1TYR     BB  731   6.392   1.498   7.168
    1TYR    SC1  732   6.230   1.233   7.159
    1TYR    SC2  733   6.301   1.148   7.372
    1TYR    SC3  734   6.079   1.059   7.414
    2GLN     BB  735   6.268   1.516   7.524
    2GLN    SC1  736   6.428   1.887   7.590
    3TYR     BB  737   6.364   1.406   7.811
    3TYR    SC1  738   6.174   1.188   7.854
    3TYR    SC2  739   6.227   1.088   8.067
    3TYR    SC3  740   5.990   1.064   8.117
    1TYR     BB  741   1.330   6.087   0.548
    1TYR    SC1  742   1.584   5.928   0.634
    1TYR    SC2  743   1.489   5.826   0.830
    1TYR    SC3  744   1.609   5.620   0.785
    2GLN     BB  745   1.149   5.766   0.629
    2GLN    SC1  746   0.787   5.905   0.496
    3TYR     BB  747   1.019   5.629   0.890
    3TYR    SC1  748   1.217   5.424   0.951
    3TYR    SC2  749   1.141   5.306   1.147
    3TYR    SC3  750   1.214   5.095   1.052
    1TYR     BB  751   3.900   3.353   3.442
    1TYR    SC1  752   4.104   3.127   3.375
    1TYR    SC2  753   4.221   3.131   3.585
    1TYR    SC3  754   4.242   2.889   3.580
    2GLN     BB  755   3.871   3.175   3.773
    2GLN    SC1  756   3.570   3.418   3.907
    3TYR     BB  757   4.024   3.180   4.056
    3TYR    SC1  758   4.178   2.933   4.042
    3TYR    SC2  759   4.304   2.914   4.247
    3TYR    SC3  760   4.259   2.676   4.256
    1TYR     BB  761   5.312   4.898   2.744
    1TYR    SC1  762   5.279   4.705   2.503
    1TYR    SC2  763   5.126   4.842   2.376
    1TYR    SC3  764   5.234   4.776   2.169
    2GLN     BB  765   5.340   5.164   2.478
    2GLN    SC1  766   5.426   5.461   2.746
    3TYR     BB  767   5.138   5.350   2.310
    3TYR    SC1  768   5.143   5.220   2.050
    3TYR    SC2  769   4.997   5.343   1.904
    3TYR    SC3  770   5.153   5.318   1.720
    1TYR     BB  771   4.812   5.247   5.860
    1TYR    SC1  772   4.777   5.040   5.630
    1TYR    SC2  773   4.672   5.189   5.473
    1TYR    SC3  774   4.793   5.086   5.290
    2GLN     BB  775   4.926   5.477   5.584
    2GLN    SC1  776   5.028   5.779   5.841
    3TYR     BB  777   4.788   5.679   5.375
    3TYR    SC1  778   4.804   5.526   5.128
    3TYR    SC2  779   4.705   5.659   4.953
    3TYR    SC3  780   4.878   5.589   4.798
    1TYR     BB  781   1.122   6.144   5.631
    1TYR    SC1  782   0.841   6.175   5.501
    1TYR    SC2  783   0.868   6.006   5.332
    1TYR    SC3  784   0.637   5.937   5.359
    2GLN     BB  785   1.053   5.775   5.600
    2GLN    SC1  786   1.393   5.666   5.800
    3TYR     BB  787   1.091   5.546   5.376
    3TYR    SC1  788   0.817   5.511   5.283
    3TYR    SC2  789   0.819   5.342   5.112
    3TYR    SC3  790   0.613   5.248   5.197
    1TYR     BB  791   4.187   3.271   7.370
    1TYR    SC1  792   4.069   3.347   7.093
    1TYR    SC2  793   3.952   3.545   7.164
    1TYR    SC3  794   4.009   3.658   6.957
    2GLN     BB  795   4.263   3.640   7.396
    2GLN    SC1  796   4.466   3.601   7.749
    3TYR     BB  797   4.108   3.905   7.494
    3TYR    SC1  798   4.044   4.030   7.239
    3TYR    SC2  799   3.925   4.234   7.287
    3TYR    SC3  800   4.044   4.349   7.109
    1TYR     BB  801   0.727   1.207   1.747
    1TYR    SC1  802   1.025   1.120   1.770
    1TYR    SC2  803   1.031   1.101   2.010
    1TYR    SC3  804   1.174   0.905   1.994
    2GLN     BB  805   0.668   0.936   2.002
    2GLN    SC1  806   0.261   0.976   1.991
    3TYR     BB  807   0.674   0.910   2.323
    3TYR    SC1  808   0.924   0.766   2.364
    3TYR    SC2  809   0.951   0.734   2.601
    3TYR    SC3  810   1.036   0.509   2.564
    1TYR     BB  811   2.198   3.280   4.663
    1TYR    SC1  812   2.235   2.976   4.603
    1TYR    SC2  813   2.092   2.967   4.410
    1TYR    SC3  814   2.243   2.811   4.301
    2GLN     BB  815   2.240   3.319   4.290
    2GLN    SC1  816   2.237   3.728   4.305
    3TYR     BB  817   2.049   3.310   4.030
    3TYR    SC1  818   2.119   3.050   3.918
    3TYR    SC2  819   1.986   3.019   3.719
    3TYR    SC3  820   2.176   2.919   3.604
    1TYR     BB  821   2.422   6.401   0.168
    1TYR    SC1  822   2.683   6.525   0.284
    1TYR    SC2  823   2.604   6.554   0.509
    1TYR    SC3  824   2.821   6.491   0.597
    2GLN     BB  825   2.423   6.198   0.486
    2GLN    SC1  826   2.100   5.972   0.374
    3TYR     BB  827   2.314   6.234   0.787
    3TYR    SC1  828   2.562   6.288   0.930
    3TYR    SC2  829   2.506   6.319   1.163
    3TYR    SC3  830   2.704   6.195   1.230
    1TYR     BB  831   7.656   8.050   1.162
    1TYR    SC1  832   7.423   7.861   1.081
    1TYR    SC2  833   7.381   7.772   1.301
    1TYR    SC3  834   7.142   7.772   1.259
    2GLN     BB  835   7.434   8.138   1.454
    2GLN    SC1  836   7.685   8.430   1.592
    3TYR     BB  837   7.378   8.022   1.749
    3TYR    SC1  838   7.121   7.891   1.711
    3TYR    SC2  839   7.057   7.795   1.922
    3TYR    SC3  840   6.826   7.862   1.886
    1TYR     BB  841   1.787   0.669   6.100
    1TYR    SC1  842   1.888   0.642   6.393
    1TYR    SC2  843   1.784   0.430   6.440
    1TYR    SC3  844   1.978   0.361   6.569
    2GLN     BB  845   1.885   0.306   6.073
    2GLN    SC1  846   1.806   0.286   5.672
    3TYR     BB  847   1.748   0.021   6.132
    3TYR    SC1  848   1.881  -0.057   6.379
    3TYR    SC2  849   1.793  -0.271   6.445
    3TYR    SC3  850   2.015  -0.345   6.513
    1TYR     BB  851   2.178   5.551   4.324
    1TYR    SC1  852   2.400   5.474   4.528
    1TYR    SC2  853   2.305   5.589   4.717
    1TYR    SC3  854   2.374   5.409   4.865
    2GLN     BB  855   1.942   5.466   4.605
    2GLN    SC1  856   1.607   5.516   4.375
    3TYR     BB  857   1.812   5.619   4.857
    3TYR    SC1  858   1.968   5.507   5.077
    3TYR    SC2  859   1.888   5.608   5.281
    3TYR    SC3  860   1.906   5.396   5.397
    1TYR     BB  861  -0.075   1.300   5.981
    1TYR    SC1  862  -0.111   1.154   5.708
    1TYR    SC2  863   0.113   1.068   5.692
    1TYR    SC3  864   0.030   0.860   5.597
    2GLN     BB  865   0.104   0.984   6.083
    2GLN    SC1  866   0.152   1.104   6.471
    3TYR     BB  867   0.405   0.869   6.064
    3TYR    SC1  868   0.377   0.674   5.850
    3TYR    SC2  869   0.593   0.572   5.816
    3TYR    SC3  870   0.489   0.355   5.785
    1TYR     BB  871   5.180   4.573   6.930
    1TYR    SC1  872   5.006   4.316   6.950
    1TYR    SC2  873   4.795   4.420   6.900
    1TYR    SC3  874   4.726   4.225   6.771
    2GLN     BB  875   4.976   4.641   6.620
    2GLN    SC1  876   5.192   4.972   6.517
    3TYR     BB  877   4.694   4.782   6.551
    3TYR    SC1  878   4.526   4.550   6.499
    3TYR    SC2  879   4.306   4.631   6.444
    3TYR    SC3  880   4.283   4.462   6.272
    1TYR     BB  881   6.576   4.328   7.170
    1TYR    SC1  882   6.572   4.502   6.913
    1TYR    SC2  883   6.455   4.345   6.773
    1TYR    SC3  884   6.332   4.526   6.667
    2GLN     BB  885   6.216   4.257   7.082
    2GLN    SC1  886   6.145   4.045   7.424
    3TYR     BB  887   6.057   4.045   6.897
    3TYR    SC1  888   5.984   4.212   6.670
    3TYR    SC2  889   5.862   4.073   6.515
    3TYR    SC3  890   5.708   4.255   6.469
    1TYR     BB  891   4.915   3.568   0.450
    1TYR    SC1  892   4.913   3.364   0.685
    1TYR    SC2  893   4.725   3.234   0.609
    1TYR    SC3  894   4.832   3.029   0.685
    2GLN     BB  895   4.862   3.263   0.235
    2GLN    SC1  896   4.892   3.471  -0.116
    3TYR     BB  897   4.611   3.089   0.131
    3TYR    SC1  898   4.631   2.853   0.300
    3TYR    SC2  899   4.451   2.705   0.240
    3TYR    SC3  900   4.597   2.513   0.261
    1TYR     BB  901   4.155   6.933   1.837
    1TYR    SC1  902   3.923   6.939   1.629
    1TYR    SC2  903   3.951   7.168   1.562
    1TYR    SC3  904   3.900   7.110   1.331
    2GLN     BB  905   4.348   7.117   1.570
    2GLN    SC1  906   4.699   7.110   1.781
    3TYR     BB  907   4.389   7.424   1.480
    3TYR    SC1  908   4.225   7.434   1.239
    3TYR    SC2  909   4.240   7.658   1.151
    3TYR    SC3  910   4.251   7.572   0.924
    1TYR     BB  911   2.462   1.377   0.923
    1TYR    SC1  912   2.259   1.216   0.750
    1TYR    SC2  913   2.242   1.375   0.570
    1TYR    SC3  914   2.231   1.194   0.408
    2GLN     BB  915   2.636   1.436   0.594
    2GLN    SC1  916   2.955   1.626   0.766
    3TYR     BB  917   2.617   1.649   0.353
    3TYR    SC1  918   2.483   1.491   0.148
    3TYR    SC2  919   2.457   1.631  -0.046
    3TYR    SC3  920   2.512   1.445  -0.192
    1TYR     BB  921   3.717   1.092   5.933
    1TYR    SC1  922   3.991   1.042   5.793
    1TYR    SC2  923   4.074   0.879   5.949
    1TYR    SC3  924   4.175   0.753   5.768
    2GLN     BB  925   3.710   0.716   5.966
    2GLN    SC1  926   3.332   0.710   6.124
    3TYR     BB  927   3.818   0.497   6.176
    3TYR    SC1  928   4.046   0.387   6.030
    3TYR    SC2  929   4.146   0.217   6.169
    3TYR    SC3  930   4.182   0.075   5.976
    1TYR     BB  931   0.548   6.621   6.783
    1TYR    SC1  932   0.523   6.776   6.515
    1TYR    SC2  933   0.508   6.583   6.371
    1TYR    SC3  934   0.345   6.697   6.231
    2GLN     BB  935   0.272   6.407   6.641
    2GLN    SC1  936   0.228   6.188   6.984
    3TYR     BB  937   0.249   6.148   6.452
    3TYR    SC1  938   0.160   6.268   6.202
    3TYR    SC2  939   0.135   6.090   6.041
    3TYR    SC3  940  -0.067   6.192   5.954
    1TYR     BB  941   2.930   0.118   0.927
    1TYR    SC1  942   2.636   0.079   1.022
    1TYR    SC2  943   2.688   0.009   1.246
    1TYR    SC3  944   2.497   0.133   1.333
    2GLN     BB  945   2.977   0.284   1.262
    2GLN    SC1  946   3.361   0.398   1.182
    3TYR     BB  947   3.048   0.192   1.562
    3TYR    SC1  948   2.788   0.213   1.692
    3TYR    SC2  949   2.816   0.147   1.922
    3TYR    SC3  950   2.666   0.324   1.994
    1TYR     BB  951   2.161   0.083   2.831
    1TYR    SC1  952   1.897   0.099   2.995
    1TYR    SC2  953   1.970  -0.035   3.181
    1TYR    SC3  954   1.851   0.108   3.336
    2GLN     BB  955   2.327   0.143   3.165
    2GLN    SC1  956   2.703   0.170   3.004
    3TYR     BB  957   2.427  -0.036   3.413
    3TYR    SC1  958   2.220   0.019   3.610
    3TYR    SC2  959   2.273  -0.107   3.809
    3TYR    SC3  960   2.205   0.080   3.949
    1TYR     BB  961   7.156   1.889   6.321
    1TYR    SC1  962   7.122   1.981   6.026
    1TYR    SC2  963   7.245   2.187   6.045
    1TYR    SC3  964   7.339   2.155   5.824
    2GLN     BB  965   7.514   1.999   6.274
    2GLN    SC1  966   7.632   1.864   6.642
    3TYR     BB  967   7.680   2.274   6.302
    3TYR    SC1  968   7.718   2.346   6.023
    3TYR    SC2  969   7.843   2.553   6.018
    3TYR    SC3  970   7.973   2.473   5.829
    1TYR     BB  971   2.890   1.135   2.130
    1TYR    SC1  972   2.593   1.210   2.074
    1TYR    SC2  973   2.511   1.171   2.297
    1TYR    SC3  974   2.363   1.363   2.280
    2GLN     BB  975   2.842   1.338   2.444
    2GLN    SC1  976   3.235   1.307   2.556
    3TYR     BB  977   2.735   1.286   2.743
    3TYR    SC1  978   2.473   1.413   2.732
    3TYR    SC2  979   2.370   1.386   2.949
    3TYR    SC3  980   2.281   1.612   2.938
    1TYR     BB  981   0.775   3.849   0.845
    1TYR    SC1  982   0.820   4.111   0.683
    1TYR    SC2  983   0.931   4.009   0.495
    1TYR    SC3  984   0.817   4.161   0.342
    2GLN     BB  985   0.671   3.706   0.512
    2GLN    SC1  986   0.558   3.346   0.672
    3TYR     BB  987   0.817   3.567   0.261
    3TYR    SC1  988   0.811   3.783   0.065
    3TYR    SC2  989   0.916   3.703  -0.136
    3TYR    SC3  990   0.750   3.815  -0.272
    1TYR     BB  991   5.142   6.509  -0.443
    1TYR    SC1  992   5.023   6.740  -0.272
    1TYR    SC2  993   4.965   6.607  -0.080
    1TYR    SC3  994   5.031   6.787   0.069
    2GLN     BB  995   5.310   6.408  -0.121
    2GLN    SC1  996   5.526   6.108  -0.297
    3TYR     BB  997   5.236   6.227   0.135
    3TYR    SC1  998   5.182   6.432   0.335
    3TYR    SC2  999   5.123   6.320   0.540
    3TYR    SC3 1000   5.252   6.481   0.669
    4W        W 1001   0.349   1.633   2.100
    5W        W 1002   4.010   5.867   1.494
    6W        W 1003   3.772   4.299   0.403
    7W        W 1004   3.484   7.360   2.147
    8W        W 1005   2.537   3.319   3.106
    9W        W 1006   3.102   5.951   3.455
   10W        W 1007   3.635   6.731   2.684
   11W        W 1008   3.112   3.406   6.189
   12W        W 1009   6.617   2.508   3.357
   13W        W 1010   0.928   6.753   6.162
   14W        W 1011   7.158   3.321   3.628
   15W        W 1012   6.117   6.459   3.240
   16W        W 1013   7.256   3.126   1.905
   17W        W 1014   4.479   7.132   6.676
   18W        W 1015   4.614   4.267   3.949
   19W        W 1016   4.204   3.886   1.026
   20W        W 1017   3.255   5.763   3.879
   21W        W 1018   2.552   6.182   3.404
   22W        W 1019   5.594   4.501   0.154
   23W        W 1020   0.331   3.089   3.924
   24W        W 1021   1.975   6.238   5.081
   25W        W 1022   5.364   2.299   5.526
   26W        W 1023   1.453   4.276   3.805
   27W        W 1024   3.032   2.144   5.556
   28W        W 1025   0.429   6.932   3.776
   29W        W 1026   2.769   0.900   5.002
   30W        W 1027   1.095   7.587   5.519
   31W        W 1028   0.180   4.842   4.244
   32W        W 1029   7.654   6.841   5.972
   33W        W 1030   3.181   1.827   1.211
   34W        W 1031   4.354   0.291   4.467
   35W        W 1032   3.860   6.313   1.114
   36W        W 1033   3.430   4.024   2.538
   37W        W 1034   2.630   7.135   2.585
   38W        W 1035   1.440   7.637   5.136
   39W        W 1036   5.533   0.490   3.665
   40W        W 1037   7.517   7.177   2.175
   41W        W 1038   2.251   0.633   4.073
   42W        W 1039   3.736   4.560   6.753
   43W        W 1040   4.599   2.116   6.133
   44W        W 1041   5.681   4.462   4.970
   45W        W 1042   5.676   1.433   2.966
   46W        W 1043   4.819   6.067   6.364
   47W        W 1044   0.606   2.177   6.213
   48W        W 1045   4.639   0.850   7.747
   49W        W 1046   1.119   5.630   1.968
   50W        W 1047   2.617   7.080   0.519
   51W        W 1048   1.180   3.272   4.125
   52W        W 1049   6.733   1.195   3.868
   53W        W 1050   1.602   2.575   3.865
   54W        W 1051   3.987   7.321   3.032
   55W        W 1052   1.242   7.332   1.453
   56W        W 1053   1.855   6.457   3.898
   57W        W 1054   5.253   5.959   0.677
   58W        W 1055   4.050   5.464   2.603
   59W        W 1056   2.220   4.370   2.646
   60W        W 1057   0.387   1.607   7.962
   61W        W 1058   1.261   6.947   0.428
   62W        W 1059   2.307   7.508   1.384
   63W        W 1060   6.442   3.540   3.828
   64W        W 1061   3.367   3.532   4.367
   65W        W 1062   3.462   3.638   5.146
   66W        W 1063   6.619   6.519   2.671
   67W        W 1064   7.309   0.266   0.194
   68W        W 1065   3.211   0.699   7.320
   69W        W 1066   6.292   0.807   0.486
   70W        W 1067   7.424   3.158   0.769
   71W        W 1068   5.880   5.100   7.157
   72W        W 1069   2.098   2.272   1.668
   73W        W 1070   6.438   4.924   7.950
   74W        W 1071   5.937   5.515   6.608
   75W        W 1072   0.024   0.654   7.928
   76W        W 1073   6.084   2.032   2.232
   77W        W 1074   5.349   6.095   3.993
   78W        W 1075   5.173   2.658   1.706
   79W        W 1076   6.188   7.690   0.733
   80W        W 1077   7.814   7.422   5.045
   81W        W 1078   0.819   0.266   0.956
   82W        W 1079   0.750   1.601   4.399
   83W        W 1080   1.797   0.656   7.022
   84W        W 1081   4.102   4.177   4.143
   85W        W 1082   0.259   7.046   0.824
   86W        W 1083   5.650   7.086   2.695
   87W        W 1084   6.056   5.766   5.520
   88W        W 1085   5.269   3.839   4.784
   89W        W 1086   7.915   3.693   5.877
   90W        W 1087   2.142   3.523   0.605
   91W        W 1088   5.241   5.224   4.271
   92W        W 1089   2.032   0.198   0.976
   93W        W 1090   2.383   2.228   2.244
   94W        W 1091   6.591   0.284   2.179
   95W        W 1092   0.546   4.305   3.982
   96W        W 1093   2.239   4.351   6.496
   97W        W 1094   6.496   5.044   1.240
   98W        W 1095   2.076   4.846   5.023
   99W        W 1096   0.275   5.572   1.494
  100W        W 1097   3.515   4.667   4.942
  101W        W 1098   3.714   5.802   5.639
  102W        W 1099   0.394   3.751   3.247
  103W        W 1100   6.165   6.953   1.111
  104W        W 1101   2.626   4.308   5.785
  105W        W 1102   7.728   0.116   7.149
  106W        W 1103   3.678   0.463   4.635
  107W        W 1104   3.544   5.250   4.852
  108W        W 1105   7.724   7.128   1.245
  109W        W 1106   4.011   0.806   7.564
  110W        W 1107   0.266   3.307   6.067
  111W        W 1108   0.569   2.820   0.459
  112W        W 1109   5.281   7.196   5.432
  113W        W 1110   3.922   2.298   4.099
  114W        W 1111   5.561   0.088   6.628
  115W        W 1112   0.770   0.423   0.434
  116W        W 1113   2.607   7.020   6.969
  117W        W 1114   2.810   7.885   0.487
  118W        W 1115   3.742   4.648   2.876
  119W        W 1116   3.497   4.702   7.377
  120W        W 1117   2.552   4.984   3.352
  121W        W 1118   2.997   4.317   1.667
  122W        W 1119   1.083   6.169   5.039
  123W        W 1120   6.865   3.091   5.000
  124W        W 1121   3.990   4.941   5.149
  125W        W 1122   5.907   7.058   7.581
  126W        W 1123   3.354   0.720   1.981
  127W        W 1124   6.021   3.539   3.652
  128W        W 1125   2.808   2.563   2.111
  129W        W 1126   4.883   2.466   7.680
  130W        W 1127   7.565   5.936   3.753
  131W        W 1128   4.190   2.869   5.895
  132W        W 1129   6.424   7.762   5.954
  133W        W 1130   2.332   2.230   1.251
  134W        W 1131   6.511   6.696   6.796
  135W        W 1132   0.846   5.585   3.603
  136W        W 1133   4.572   5.569   2.581
  137W        W 1134   3.491   7.120   0.669
  138W        W 1135   3.830   6.778   4.809
  139W        W 1136   4.149   3.775   0.503
  140W        W 1137   4.457   1.760   0.882
  141W        W 1138   1.068   1.917   5.980
  142W        W 1139   5.990   6.957   3.045
  143W        W 1140   3.216   4.376   2.811
  144W        W 1141   0.845   5.393   2.613
  145W        W 1142   2.615   3.713   1.550
  146W        W 1143   3.555   4.534   2.444
  147W        W 1144   4.290   5.252   2.235
  148W        W 1145   2.818   0.909   4.513
  149W        W 1146   7.292   5.438   1.135
  150W        W 1147   4.900   2.969   1.462
  151W        W 1148   4.043   3.164   1.239
  152W        W 1149   2.314   6.966   3.819
  153W        W 1150   5.000   7.333   7.344
  154W        W 1151   3.631   5.801   0.429
  155W        W 1152   6.190   6.168   2.866
  156W        W 1153   0.307   4.777   6.065
  157W        W 1154   0.738   4.462   0.887
  158W        W 1155   0.049   0.664   0.817
  159W        W 1156   0.564   4.822   1.825
  160W        W 1157   3.710   7.655   3.799
  161W        W 1158   7.245   2.690   7.612
  162W        W 1159   4.274   3.116   2.080
  163W        W 1160   5.786   5.809   0.667
  164W        W 1161   0.612   1.030   7.085
  165W        W 1162   0.018   3.626   5.211
  166W        W 1163   2.590   4.619   1.098
  167W        W 1164   0.505   5.802   6.467
  168W        W 1165   7.009   0.626   1.518
  169W        W 1166   1.273   0.657   6.567
  170W        W 1167   0.325   6.638   1.251
  171W        W 1168   4.013   7.430   1.986
  172W        W 1169   6.418   3.571   0.115
  173W        W 1170   7.281   6.851   6.945
  174W        W 1171   3.678   3.672   0.904
  175W        W 1172   7.741   0.449   0.390
  176W        W 1173   1.469   6.671   5.382
  177W        W 1174   2.608   7.013   1.645
  178W        W 1175   6.769   5.310   0.874
  179W        W 1176   6.324   2.586   2.869
  180W        W 1177   7.235   4.956   6.943
  181W        W 1178   3.061   4.133   3.268
  182W        W 1179   3.865   0.144   3.816
  183W        W 1180   5.208   1.841   7.851
  184W        W 1181   4.545   3.698   6.398
  185W        W 1182   3.100   4.999   4.788
  186W        W 1183   5.971   3.294   4.615
  187W        W 1184   2.201   3.642   2.003
  188W        W 1185   1.229   1.111   5.164
  189W        W 1186   1.495   6.815   1.374
  190W        W 1187   0.800   1.759   3.437
  191W        W 1188   3.060   1.377   1.006
  192W        W 1189   7.406   4.118   1.879
  193W        W 1190   2.654   3.201   0.720
  194W        W 1191   1.345   2.618   2.437
  195W        W 1192   0.190   2.337   5.226
  196W        W 1193   2.368   0.020   4.519
  197W        W 1194   0.428   1.998   1.685
  198W        W 1195   5.736   6.311   2.823
  199W        W 1196   1.161   0.086   5.427
  200W        W 1197   5.285   7.593   5.142
  201W        W 1198   7.071   3.024   0.035
  202W        W 1199   3.485   4.051   4.160
  203W        W 1200   2.242   4.833   0.719
  204W        W 1201   5.497   6.915   4.538
  205W        W 1202   2.980   2.287   7.647
  206W        W 1203   0.298   4.821   0.245
  207W        W 1204   3.681   2.474   1.733
  208W        W 1205   1.186   3.504   2.720
  209W        W 1206   7.495   0.885   7.167
  210W        W 1207   3.843   3.473   5.560
  211W        W 1208   4.348   6.632   6.331
  212W        W 1209   0.068   0.328   2.342
  213W        W 1210   5.498   6.883   4.043
  214W        W 1211   6.524   1.236   6.236
  215W        W 1212   5.849   0.071   4.560
  216W        W 1213   7.408   6.166   4.959
  217W        W 1214   5.832   7.786   6.897
  218W        W 1215   0.698   6.968   1.731
  219W        W 1216   0.445   4.265   0.421
  220W        W 1217   2.499   6.618   5.107
  221W        W 1218   2.303   2.590   3.904
  222W        W 1219   0.171   7.871   4.160
  223W        W 1220   3.565   0.598   0.972
  224W        W 1221   7.556   5.320   3.163
  225W        W 1222   7.566   2.429   7.824
  226W        W 1223   3.559   1.697   5.985
  227W        W 1224   6.247   7.451   7.550
  228W        W 1225   3.618   0.917   3.868
  229W        W 1226   0.626   1.066   4.390
  230W        W 1227   6.745   7.306   0.052
  231W        W 1228   6.058   3.145   0.224
  232W        W 1229   2.843   6.163   4.726
  233W        W 1230   1.682   5.368   1.491
  234W        W 1231   3.664   4.151   3.681
  235W        W 1232   2.867   2.023   2.130
  236W        W 1233   3.002   6.463   5.114
  237W        W 1234   7.841   5.773   4.474
  238W        W 1235   7.317   7.251   0.731
  239W        W 1236   2.995   1.542   6.545
  240W        W 1237   5.791   3.202   6.485
  241W        W 1238   7.851   2.088   6.810
  242W        W 1239   1.278   4.324   5.223
  243W        W 1240   1.768   4.770   0.877
  244W        W 1241   2.117   1.289   4.259
  245W        W 1242   0.995   2.283   0.036
  246W        W 1243   1.393   3.615   0.220
  247W        W 1244   6.572   3.457   4.822
  248W        W 1245   5.078   0.628   5.918
  249W        W 1246   2.301   7.087   5.753
  250W        W 1247   1.257   2.988   3.634
  251W        W 1248   1.171   5.164   0.345
  252W        W 1249   6.131   1.084   5.860
  253W        W 1250   6.559   4.297   3.034
  254W        W 1251   1.930   4.403   3.622
  255W        W 1252   0.845   0.004   1.893
  256W        W 1253   2.903   4.153   4.253
  257W        W 1254   4.763   6.233   1.425
  258W        W 1255   1.429   1.504   5.383
  259W        W 1256   3.548   0.353   4.147
  260W        W 1257   2.900   7.568   1.425
  261W        W 1258   1.814   4.223   0.816
  262W        W 1259   2.405   3.182   5.125
  263W        W 1260   2.301   1.283   3.573
  264W        W 1261   5.922   4.946   4.852
  265W        W 1262   5.649   3.354   2.642
  266W        W 1263   3.528   6.732   6.577
  267W        W 1264   7.641   5.803   3.075
  268W        W 1265   5.314   0.911   3.796
  269W        W 1266   5.943   4.663   6.881
  270W        W 1267   0.395   0.226   3.592
  271W        W 1268   0.846   4.409   1.617
  272W        W 1269   7.103   5.197   3.607
  273W        W 1270   4.036   5.543   3.924
  274W        W 1271   0.108   5.363   5.096
  275W        W 1272   7.672   6.207   4.515
  276W        W 1273   5.229   4.522   7.471
  277W        W 1274   1.375   3.430   1.164
  278W        W 1275   1.671   4.157   5.560
  279W        W 1276   1.383   5.875   3.643
  280W        W 1277   5.422   3.768   7.884
  281W        W 1278   6.533   5.993   5.084
  282W        W 1279   3.025   4.593   7.244
  283W        W 1280   4.435   3.823   1.570
  284W        W 1281   2.804   4.582   3.176
  285W        W 1282   4.342   0.358   3.837
  286W        W 1283   4.244   0.539   5.236
  287W        W 1284   3.775   3.827   1.334
  288W        W 1285   0.524   2.258   3.431
  289W        W 1286   2.563   2.588   2.961
  290W        W 1287   3.545   7.783   0.149
  291W        W 1288   5.677   6.043   5.750
  292W        W 1289   1.742   1.862   7.722
  293W        W 1290   0.114   5.180   2.143
  294W        W 1291   6.784   5.617   3.362
  295W        W 1292   2.731   4.151   6.901
  296W        W 1293   0.792   5.281   1.646
  297W        W 1294   0.422   5.714   0.978
  298W        W 1295   2.350   4.732   5.471
  299W        W 1296   4.647   7.242   4.709
  300W        W 1297   7.841   4.210   2.193
  301W        W 1298   4.992   0.675   6.877
  302W        W 1299   2.805   1.992   3.466
  303W        W 1300   6.557   0.721   1.160
  304W        W 1301   0.535   4.424   3.478
  305W        W 1302   1.979   2.104   6.411
  306W        W 1303   3.150   3.798   1.634
  307W        W 1304   4.588   6.991   0.788
  308W        W 1305   6.224   0.691   6.822
  309W        W 1306   0.632   3.857   7.284
  310W        W 1307   0.524   7.235   5.057
  311W        W 1308   6.416   6.936   7.574
  312W        W 1309   2.712   4.367   2.746
  313W        W 1310   5.425   3.722   2.390
  314W        W 1311   6.697   4.696   3.271
  315W        W 1312   7.176   0.692   0.412
  316W        W 1313   1.617   1.242   2.597
  317W        W 1314   2.148   5.449   2.572
  318W        W 1315   3.105   0.486   4.764
  319W        W 1316   4.110   0.556   3.277
  320W        W 1317   2.191   7.073   3.340
  321W        W 1318   6.899   1.528   7.660
  322W        W 1319   0.805   4.184   0.003
  323W        W 1320   5.704   5.121   3.873
  324W        W 1321   0.520   2.210   6.938
  325W        W 1322   2.932   0.801   0.370
  326W        W 1323   7.000   5.390   5.643
  327W        W 1324   2.837   5.883   7.389
  328W        W 1325   7.173   3.649   0.718
  329W        W 1326   6.816   7.096   0.521
  330W        W 1327   4.889   1.207   6.940
  331W        W 1328   6.705   3.832   0.546
  332W        W 1329   6.985   6.398   1.029
  333W        W 1330   5.003   2.040   3.247
  334W        W 1331   3.324   5.958   2.361
  335W        W 1332   6.530   3.909   6.745
  336W        W 1333   2.133   6.592   5.974
  337W        W 1334   2.328   1.500   4.662
  338W        W 1335   6.342   1.268   6.690
  339W        W 1336   0.777   1.492   0.827
  340W        W 1337   2.547   1.040   6.531
  341W        W 1338   3.382   1.587   2.877
  342W        W 1339   7.406   4.704   5.392
  343W        W 1340   6.076   0.833   5.340
  344W        W 1341   2.768   3.633   7.114
  345W        W 1342   7.273   3.416   1.170
  346W        W 1343   5.999   6.606   7.491
  347W        W 1344   1.627   0.717   2.411
  348W        W 1345   0.098   2.832   0.606
  349W        W 1346   2.497   5.124   1.054
  350W        W 1347   5.570   2.933   1.837
  351W        W 1348   5.911   3.237   3.193
  352W        W 1349   7.768   3.432   4.713
  353W        W 1350   0.994   4.818   1.317
  354W        W 1351   4.481   7.411   7.134
  355W        W 1352   2.646   5.930   6.748
  356W        W 1353   6.496   1.454   1.899
  357W        W 1354   5.321   1.660   3.240
  358W        W 1355   6.156   3.098   3.705
  359W        W 1356   4.818   5.202   6.966
  360W        W 1357   5.537   3.717   0.458
  361W        W 1358   4.323   2.836   0.552
  362W        W 1359   0.886   5.340   6.281
  363W        W 1360   4.573   1.429   2.257
  364W        W 1361   0.306   1.856   4.245
  365W        W 1362   7.326   2.967   4.964
  366W        W 1363   4.214   5.143   5.601
  367W        W 1364   5.152   1.309   0.457
  368W        W 1365   4.337   3.721   2.079
  369W        W 1366   2.805   0.133   5.663
  370W        W 1367   6.462   2.244   2.499
  371W        W 1368   2.413   5.702   5.113
  372W        W 1369   2.356   4.649   0.183
  373W        W 1370   2.193   3.020   0.659
  374W        W 1371   3.073   3.541   4.860
  375W        W 1372   7.972   4.131   5.298
  376W        W 1373   6.039   6.093   7.368
  377W        W 1374   7.456   5.787   1.422
  378W        W 1375   5.332   1.206   5.178
  379W        W 1376   5.119   3.721   2.772
  380W        W 1377   7.500   3.732   7.005
  381W        W 1378   4.862   0.087   1.302
  382W        W 1379   1.016   1.658   3.062
  383W        W 1380   6.397   4.930   5.059
  384W        W 1381   4.367   0.630   6.638
  385W        W 1382   0.573   6.303   0.535
  386W        W 1383   1.921   5.198   1.019
  387W        W 1384   2.253   4.285   2.069
  388W        W 1385   0.523   0.084   2.524
  389W        W 1386   7.573   0.969   0.532
  390W        W 1387   5.668   7.368   6.679
  391W        W 1388   0.892   2.859   2.310
  392W        W 1389   1.603   4.785   3.774
  393W        W 1390   7.206   6.744   0.661
  394W        W 1391   3.928   5.259   4.369
  395W        W 1392   6.934   1.523   1.598
  396W        W 1393   6.265   3.953   2.164
  397W        W 1394   0.241   3.307   1.316
  398W        W 1395   0.183   1.030   1.247
  399W        W 1396   0.825   0.474   5.265
  400W        W 1397   5.192   6.883   7.365
  401W        W 1398   1.752   2.802   3.190
  402W        W 1399   0.058   2.030   4.773
  403W        W 1400   2.681   4.176   7.386
  404W        W 1401   6.379   5.864   6.323
  405W        W 1402   1.168   3.771   4.365
  406W        W 1403   2.601   7.345   6.069
  407W        W 1404   3.601   2.142   5.778
  408W        W 1405   0.563   6.180   0.034
  409W        W 1406   0.615   1.893   5.790
  410W        W 1407   3.021   6.917   3.273
  411W        W 1408   2.204   3.416   0.101
  412W        W 1409   7.823   1.835   5.082
  413W        W 1410   6.666   3.551   7.171
  414W        W 1411   4.694   0.868   1.349
  415W        W 1412   6.228   2.115   7.354
  416W        W 1413   0.166   5.804   4.064
  417W        W 1414   2.339   0.609   0.742
  418W        W 1415   3.541   1.808   0.365
  419W        W 1416   6.492   5.083   5.554
  420W        W 1417   0.928   1.731   3.962
  421W        W 1418   7.648   1.659   2.228
  422W        W 1419   2.513   1.885   7.289
  423W        W 1420   2.496   1.095   3.080
  424W        W 1421   0.595   3.849   4.288
  425W        W 1422   6.042   1.134   3.217
  426W        W 1423   2.804   5.000   7.134
  427W        W 1424   0.566   6.664   5.754
  428W        W 1425   3.374   6.613   3.132
  429W        W 1426   0.731   3.864   1.693
  430W        W 1427   7.213   1.344   6.940
  431W        W 1428   0.737   2.109   1.248
  432W        W 1429   6.718   4.841   6.852
  433W        W 1430   4.272   7.015   3.315
  434W        W 1431   1.687   4.864   5.992
  435W        W 1432   5.991   0.370   6.393
  436W        W 1433   6.254   6.507   4.976
  437W        W 1434   0.761   1.889   0.418
  438W        W 1435   2.568   3.468   6.353
  439W        W 1436   4.450   6.418   4.240
  440W        W 1437   4.959   3.917   5.607
  441W        W 1438   0.909   0.784   7.552
  442W        W 1439   1.139   0.905   1.385
  443W        W 1440   3.135   4.586   7.784
  444W        W 1441   3.147   0.050   4.128
  445W        W 1442   7.276   2.491   0.280
  446W        W 1443   1.401   0.343   7.024
  447W        W 1444   3.212   4.240   6.956
  448W        W 1445   6.014   3.418   5.597
  449W        W 1446   5.090   3.496   3.901
  450W        W 1447   5.933   7.313   7.178
  451W        W 1448   0.423   3.184   2.254
  452W        W 1449   5.206   1.158   3.101
  453W        W 1450   7.671   3.454   3.286
  454W        W 1451   0.360   0.848   7.618
  455W        W 1452   3.274   1.647   2.093
  456W        W 1453   1.492   2.380   7.774
  457W        W 1454   5.842   1.869   0.596
  458W        W 1455   6.914   3.731   3.693
  459W        W 1456   6.665   6.398   5.403
  460W        W 1457   4.297   1.466   3.131
  461W        W 1458   6.904   5.757   2.450
  462W        W 1459   3.069   3.815   3.953
  463W        W 1460   2.757   4.564   4.506
  464W        W 1461   0.201   7.539   6.349
  465W        W 1462   1.409   7.471   2.213
  466W        W 1463   1.523   3.008   5.442
  467W        W 1464   4.673   2.041   7.892
  468W        W 1465   2.859   1.881   4.174
  469W        W 1466   6.652   7.714   3.202
  470W        W 1467   2.427   3.180   2.033
  471W        W 1468   6.265   7.347   0.304
  472W        W 1469   2.646   2.891   3.764
  473W        W 1470   2.531   3.557   4.853
  474W        W 1471   1.299   3.182   0.545
  475W        W 1472   1.273   1.200   2.197
  476W        W 1473   7.431   1.580   4.839
  477W        W 1474   7.412   3.771   5.062
  478W        W 1475   0.548   4.539   4.546
  479W        W 1476   0.391   3.199   3.101
  480W        W 1477   4.249   7.158   6.207
  481W        W 1478   4.071   4.230   5.690
  482W        W 1479   3.950   2.589   7.550
  483W        W 1480   7.042   2.932   0.499
  484W        W 1481   2.995   7.596   5.450
  485W        W 1482   4.314   4.547   4.889
  486W        W 1483   6.508   7.541   1.735
  487W        W 1484   4.688   3.956   2.447
  488W        W 1485   6.934   7.511   5.920
  489W        W 1486   5.246   2.577   1.201
  490W        W 1487   2.135   5.526   1.287
  491W        W 1488   0.639   4.149   1.266
  492W        W 1489   7.077   6.869   0.119
  493W        W 1490   6.566   3.867   3.310
  494W        W 1491   1.810   1.959   3.307
  495W        W 1492   2.006   2.279   5.823
  496W        W 1493   5.703   3.147   5.174
  497W        W 1494   5.744   1.778   2.600
  498W        W 1495   6.534   2.133   3.736
  499W        W 1496   4.633   0.642   4.197
  500W        W 1497   3.496   3.235   4.749
  501W        W 1498   0.177   6.841   5.469
  502W        W 1499   0.100   5.858   0.041
  503W        W 1500   5.120   6.472   2.237
  504W        W 1501   4.943   3.212   7.333
  505W        W 1502   2.905   0.493   5.326
  506W        W 1503   1.215   4.687   0.844
  507W        W 1504   3.028   7.407   0.527
  508W        W 1505   7.582   0.005   3.042
  509W        W 1506   0.201   3.645   6.965
  510W        W 1507   0.830   1.719   7.354
  511W        W 1508   5.349   4.628   4.057
  512W        W 1509   4.353   3.959   0.011
  513W        W 1510   4.966   2.867   6.984
  514W        W 1511   1.262   3.033   5.054
  515W        W 1512   6.613   7.421   6.380
  516W        W 1513   4.620   3.907   0.719
  517W        W 1514   4.987   7.461   7.894
  518W        W 1515   5.982   5.966   5.055
  519W        W 1516   0.497   0.157   4.251
  520W        W 1517   6.420   7.919   0.320
  521W        W 1518   5.940   6.054   0.239
  522W        W 1519   4.342   2.977   1.604
  523W        W 1520   2.628   3.594   2.729
  524W        W 1521   3.020   1.291   5.221
  525W        W 1522   4.653   2.617   1.232
  526W        W 1523   7.318   0.141   6.262
  527W        W 1524   6.209   0.931   1.592
  528W        W 1525   0.322   3.167   4.880
  529W        W 1526   4.184   0.803   1.556
  530W        W 1527   5.660   4.132   7.602
  531W        W 1528   1.283   4.695   6.268
  532W        W 1529   4.118   4.271   1.307
  533W        W 1530   6.839   5.566   1.290
  534W        W 1531   4.773   7.483   0.258
  535W        W 1532   1.712   6.500   6.804
  536W        W 1533   7.238   4.283   6.320
  537W        W 1534   7.635   5.228   2.470
  538W        W 1535   0.324   3.610   2.813
  539W        W 1536   0.224   3.742   0.793
  540W        W 1537   1.908   6.078   7.028
  541W        W 1538   6.343   2.126   3.278
  542W        W 1539   3.835   1.255   7.451
  543W        W 1540   3.187   0.885   5.582
  544W        W 1541   5.502   3.440   1.015
  545W        W 1542   3.401   7.094   6.261
  546W        W 1543   7.723   6.265   7.387
  547W        W 1544   5.805   4.808   1.212
  548W        W 1545   6.441   5.309   7.423
  549W        W 1546   5.144   5.357   7.685
  550W        W 1547   7.520   2.191   7.253
  551W        W 1548   0.035   2.034   2.958
  552W        W 1549   3.017   5.364   3.640
  553W        W 1550   0.318   4.358   1.668
  554W        W 1551   0.425   4.345   5.912
  555W        W 1552   2.542   1.777   2.588
  556W        W 1553   7.378   5.867   1.885
  557W        W 1554   5.808   0.551   0.559
  558W        W 1555   1.677   2.861   5.916
  559W        W 1556   2.080   0.539   4.640
  560W        W 1557   4.426   0.669   2.879
  561W        W 1558   4.071   2.436   0.616
  562W        W 1559   0.143   0.560   4.410
  563W        W 1560   4.606   5.967   5.119
  564W        W 1561   2.536   0.558   5.816
  565W        W 1562   7.413   4.681   5.948
  566W        W 1563   7.991   5.633   6.639
  567W        W 1564   0.286   5.890   4.577
  568W        W 1565   2.289   0.991   6.095
  569W        W 1566   2.160   2.927   2.892
  570W        W 1567   1.774   5.224   7.423
  571W        W 1568   4.399   0.978   5.528
  572W        W 1569   4.993   5.267   2.821
  573W        W 1570   5.627   3.686   6.405
  574W        W 1571   2.877   6.251   5.587
  575W        W 1572   1.792   4.490   5.249
  576W        W 1573   1.236   7.565   4.667
  577W        W 1574   3.495   4.730   6.042
  578W        W 1575   5.740   1.246   1.262
  579W        W 1576   3.007   1.081   6.393
  580W        W 1577   3.604   3.499   6.074
  581W        W 1578   5.221   1.061   6.166
  582W        W 1579   4.930   6.797   1.256
  583W        W 1580   5.397   7.156   7.021
  584W        W 1581   1.186   5.085   5.902
  585W        W 1582   5.230   6.346   6.416
  586W        W 1583   7.176   0.904   7.736
  587W        W 1584   2.805   4.665   6.760
  588W        W 1585   6.234   3.081   6.213
  589W        W 1586   6.922   4.502   4.361
  590W        W 1587   2.383   7.524   6.951
  591W        W 1588   2.800   6.112   3.806
  592W        W 1589   3.158   2.409   3.475
  593W        W 1590   7.563   0.563   0.850
  594W        W 1591   6.503   3.116   0.416
  595W        W 1592   5.289   4.868   1.395
  596W        W 1593   0.424   7.201   6.711
  597W        W 1594   0.152   2.032   6.016
  598W        W 1595   7.587   4.028   2.743
  599W        W 1596   2.291   0.858   7.014
  600W        W 1597   3.216   2.553   6.908
  601W        W 1598   4.125   0.137   4.980
  602W        W 1599   4.016   0.967   6.795
  603W        W 1600   0.603   5.519   7.381
  604W        W 1601   6.426   3.661   7.654
  605W        W 1602   5.652   1.070   7.518
  606W        W 1603   4.900   5.178   4.854
  607W        W 1604   1.500   7.354   5.865
  608W        W 1605   3.738   3.949   6.893
  609W        W 1606   6.105   3.523   5.085
  610W        W 1607   5.814   6.463   4.070
  611W        W 1608   6.426   6.802   4.629
  612W        W 1609   1.918   1.408   3.199
  613W        W 1610   7.084   0.246   7.757
  614W        W 1611   7.535   3.451   6.572
  615W        W 1612   4.761   4.458   7.624
  616W        W 1613   5.476   5.506   3.062
  617W        W 1614   2.863   3.651   4.411
  618W        W 1615   3.124   4.803   5.673
  619W        W 1616   7.743   2.535   6.986
  620W        W 1617   3.772   5.184   5.908
  621W        W 1618   7.319   0.592   3.824
  622W        W 1619   0.942   3.312   3.162
  623W        W 1620   7.696   4.389   5.619
  624W        W 1621   3.732   1.920   4.338
  625W        W 1622   2.483   6.525   4.522
  626W        W 1623   5.663   7.312   0.318
  627W        W 1624   4.791   5.033   4.367
  628W        W 1625   7.727   7.693   5.756
  629W        W 1626   6.520   5.539   5.383
  630W        W 1627   3.053   0.148   6.574
  631W        W 1628   3.165   0.879   0.806
  632W        W 1629   2.648   2.429   4.900
  633W        W 1630   7.142   7.191   3.641
  634W        W 1631   5.414   4.967   5.019
  635W        W 1632   5.643   4.973   1.712
  636W        W 1633   3.923   5.851   2.934
  637W        W 1634   3.634   0.799   1.537
  638W        W 1635   3.739   6.172   4.685
  639W        W 1636   2.692   1.409   4.344
  640W        W 1637   7.646   0.601   5.030
  641W        W 1638   0.747   7.548   4.601
  642W        W 1639   7.994   6.359   3.127
  643W        W 1640   1.802   3.796   0.068
  644W        W 1641   3.264   6.732   4.230
  645W        W 1642   5.444   5.721   6.519
  646W        W 1643   1.008   3.978   2.077
  647W        W 1644   6.891   6.336   5.858
  648W        W 1645   5.465   1.586   6.276
  649W        W 1646   1.614   5.297   3.790
  650W        W 1647   1.659   3.056   1.384
  651W        W 1648   1.408   3.908   7.214
  652W        W 1649   1.016   3.415   6.237
  653W        W 1650   4.676   2.608   2.394
  654W        W 1651   5.945   7.734   0.261
  655W        W 1652   1.525   2.450   0.197
  656W        W 1653   0.843   5.491   6.891
  657W        W 1654   7.895   6.664   1.385
  658W        W 1655   6.962   5.885   4.657
  659W        W 1656   4.583   7.146   2.891
  660W        W 1657   1.597   5.021   4.554
  661W        W 1658   4.845   3.903   4.494
  662W        W 1659   3.044   4.869   6.206
  663W        W 1660   1.797   6.203   3.493
  664W        W 1661   7.135   0.546   6.432
  665W        W 1662   4.333   6.850   4.869
  666W        W 1663   2.900   5.411   5.076
  667W        W 1664   3.117   0.315   2.395
  668W        W 1665   6.485   0.695   2.439
  669W        W 1666   3.708   0.846   7.169
  670W        W 1667   5.315   1.012   2.156
  671W        W 1668   1.212   6.050   4.135
  672W        W 1669   4.418   4.685   2.333
  673W        W 1670   5.465   5.844   3.535
  674W        W 1671   3.570   2.692   4.939
  675W        W 1672   3.117   3.245   0.875
  676W        W 1673   3.302   5.552   5.361
  677W        W 1674   3.398   6.302   2.719
  678W        W 1675   7.441   2.521   4.771
  679W        W 1676   5.560   3.464   4.792
  680W        W 1677   3.114   6.425   0.093
  681W        W 1678   4.183   0.432   5.722
  682W        W 1679   3.636   4.251   6.241
  683W        W 1680   1.587   1.163   3.531
  684W        W 1681   7.052   4.064   4.338
  685W        W 1682   0.063   3.334   1.877
  686W        W 1683   4.492   2.315   5.164
  687W        W 1684   6.124   5.431   3.999
  688W        W 1685   2.929   3.730   6.663
  689W        W 1686   6.545   0.630   1.750
  690W        W 1687   3.666   1.042   2.376
  691W        W 1688   4.892   0.678   3.118
  692W        W 1689   6.602   4.315   3.583
  693W        W 1690   5.543   6.725   3.066
  694W        W 1691   4.428   4.893   7.861
  695W        W 1692   0.894   5.629   7.825
  696W        W 1693   1.349   4.504   5.750
  697W        W 1694   7.084   3.028   2.700
  698W        W 1695   5.021   6.502   4.099
  699W        W 1696   5.809   4.553   3.736
  700W        W 1697   7.200   6.199   0.631
  701W        W 1698   7.508   3.429   0.331
  702W        W 1699   7.863   0.510   3.663
  703W        W 1700   0.355   1.834   0.726
  704W        W 1701   3.006   4.287   2.349
  705W        W 1702   7.125   2.817   3.551
  706W        W 1703   6.192   5.055   6.704
  707W        W 1704   0.096   5.650   2.097
  708W        W 1705   5.053   5.760   2.776
  709W        W 1706   4.905   1.783   2.274
  710W        W 1707   2.920   7.448   6.800
  711W        W 1708   0.547   1.496   2.918
  712W        W 1709   0.045   5.409   0.230
  713W        W 1710   3.246   0.574   7.868
  714W        W 1711   6.209   6.210   5.412
  715W        W 1712   0.915   3.151   0.918
  716W        W 1713   1.212   3.620   1.771
  717W        W 1714   0.202   1.289   7.218
  718W        W 1715   6.261   0.329   0.226
  719W        W 1716   4.346   7.524   2.685
  720W        W 1717   2.680   2.372   6.812
  721W        W 1718   5.840   5.692   4.668
  722W        W 1719   2.766   1.303   5.679
  723W        W 1720   6.359   6.594   1.848
  724W        W 1721   4.265   1.979   4.152
  725W        W 1722   0.352   0.725   0.326
  726W        W 1723   5.441   5.763   1.841
  727W        W 1724   0.531   2.365   5.632
  728W        W 1725   2.954   1.700   1.674
  729W        W 1726   7.621   3.237   5.727
  730W        W 1727   0.649   2.401   2.353
  731W        W 1728   5.750   2.488   7.144
  732W        W 1729   1.721   3.936   3.585
  733W        W 1730   3.599   7.066   1.749
  734W        W 1731   5.545   4.090   2.682
  735W        W 1732   2.264   5.237   2.081
  736W        W 1733   5.913   7.713   4.093
  737W        W 1734   3.245   6.402   1.144
  738W        W 1735   5.110   0.302   7.294
  739W        W 1736   2.502   6.522   3.966
  740W        W 1737   4.040   7.897   1.758
  741W        W 1738   5.567   7.716   0.647
  742W        W 1739   4.869   1.991   7.449
  743W        W 1740   3.390   3.753   2.940
  744W        W 1741   3.202   6.231   7.403
  745W        W 1742   1.524   6.920   4.096
  746W        W 1743   1.421   1.412   3.028
  747W        W 1744   7.420   1.326   1.427
  748W        W 1745   2.250   3.925   2.825
  749W        W 1746   2.017   4.018   0.446
  750W        W 1747   7.651   2.160   5.691
  751W        W 1748   7.147   2.379   4.286
  752W        W 1749   3.022   1.017   1.382
  753W        W 1750   6.438   3.904   5.094
  754W        W 1751   7.000   6.917   1.133
  755W        W 1752   5.918   1.346   4.481
  756W        W 1753   7.354   5.835   6.709
  757W        W 1754   1.022   7.298   5.068
  758W        W 1755   1.637   3.652   1.536
  759W        W 1756   4.700   5.783   3.570
  760W        W 1757   4.056   4.719   5.852
  761W        W 1758   5.083   0.796   4.373
  762W        W 1759   3.569   7.764   1.852
  763W        W 1760   3.141   5.918   4.320
  764W        W 1761   1.164   5.531   1.461
  765W        W 1762   1.054   6.590   4.219
  766W        W 1763   5.900   4.482   7.822
  767W        W 1764   2.393   6.021   7.142
  768W        W 1765   3.662   1.541   5.473
  769W        W 1766   3.922   4.919   2.477
  770W        W 1767   3.203   4.382   3.852
  771W        W 1768   0.138   4.991   3.804
  772W        W 1769   6.678   2.203   6.575
  773W        W 1770   4.582   7.078   7.520
  774W        W 1771   7.080   0.317   2.566
  775W        W 1772   7.047   0.066   2.996
  776W        W 1773   1.420   6.824   7.049
  777W        W 1774   1.079   1.219   7.341
  778W        W 1775   3.814   6.348   3.067
  779W        W 1776   0.638   6.022   7.278
  780W        W 1777   3.896   0.582   2.569
  781W        W 1778   5.724   3.797   7.221
  782W        W 1779   4.748   0.991   5.906
  783W        W 1780   1.694   6.996   6.608
  784W        W 1781   6.550   6.219   6.919
  785W        W 1782   4.141   2.484   1.491
  786W        W 1783   4.366   4.879   1.892
  787W        W 1784   3.890   4.464   5.227
  788W        W 1785   4.322   4.220   2.198
  789W        W 1786   7.712   6.556   5.491
  790W        W 1787   6.681   0.257   1.311
  791W        W 1788   6.360   0.096   6.675
  792W        W 1789   3.641   2.035   4.803
  793W        W 1790   5.137   0.074   6.827
  794W        W 1791   7.127   1.857   4.383
  795W        W 1792   1.201   2.145   0.449
  796W        W 1793   6.194   7.259   6.684
  797W        W 1794   5.710   6.609   4.849
  798W        W 1795   3.286   6.929   2.196
  799W        W 1796   7.891   6.294   0.069
  800W        W 1797   1.462   2.385   3.446
  801W        W 1798   6.993   6.038   1.494
  802W        W 1799   6.291   2.003   5.622
  803W        W 1800   6.843   6.613   4.968
  804W        W 1801   1.628   5.686   7.034
  805W        W 1802   0.372   5.154   0.568
  806W        W 1803   0.192   7.138   1.280
  807W        W 1804   3.695   6.274   7.428
  808W        W 1805   3.745   5.473   2.203
  809W        W 1806   2.750   7.132   5.512
  810W        W 1807   3.574   6.717   1.410
  811W        W 1808   5.807   3.849   2.025
  812W        W 1809   4.042   6.809   2.948
  813W        W 1810   1.396   7.287   3.533
  814W        W 1811   5.793   4.260   3.313
  815W        W 1812   6.593   6.010   1.145
  816W        W 1813   3.303   7.064   4.739
  817W        W 1814   5.584   4.019   1.010
  818W        W 1815   7.298   7.951   2.552
  819W        W 1816   4.137   1.128   2.129
  820W        W 1817   3.710   2.616   7.064
  821W        W 1818   2.771   3.120   1.212
  822W        W 1819   7.193   3.845   6.617
  823W        W 1820   3.496   1.347   0.700
  824W        W 1821   4.900   1.727   0.701
  825W        W 1822   4.010   1.473   0.865
  826W        W 1823   3.907   1.399   6.185
  827W        W 1824   6.760   3.430   2.768
  828W        W 1825   5.565   4.482   1.544
  829W        W 1826   0.017   2.878   5.815
  830W        W 1827   5.654   3.685   5.857
  831W        W 1828   4.875   6.902   5.078
  832W        W 1829   0.603   3.088   3.538
  833W        W 1830   2.782   0.548   7.621
  834W        W 1831   0.824   2.973   4.029
  835W        W 1832   3.367   0.318   5.128
  836W        W 1833   2.473   6.320   6.284
  837W        W 1834   2.635   3.243   6.778
  838W        W 1835   2.664   7.910   6.859
  839W        W 1836   7.209   0.112   5.633
  840W        W 1837   5.711   6.140   6.348
  841W        W 1838   6.674   2.198   4.234
  842W        W 1839   1.742   2.104   3.805
  843W        W 1840   3.532   5.255   7.353
  844W        W 1841   6.076   2.859   0.746
  845W        W 1842   6.226   3.159   6.787
  846W        W 1843   4.746   7.648   6.686
  847W        W 1844   6.275   7.544   1.196
  848W        W 1845   1.311   2.704   1.901
  849W        W 1846   5.397   2.054   0.944
  850W        W 1847   6.285   2.643   0.354
  851W        W 1848   3.694   0.903   0.452
  852W        W 1849   1.893   0.839   0.304
  853W        W 1850   0.295   2.665   3.303
  854W        W 1851   5.081   3.448   5.746
  855W        W 1852   7.060   2.886   2.249
  856W        W 1853   7.262   3.375   4.721
  857W        W 1854   4.021   3.014   6.903
  858W        W 1855   0.889   0.470   6.247
  859W        W 1856   1.938   1.209   7.165
  860W        W 1857   2.027   1.006   3.859
  861W        W 1858   3.078   3.706   0.687
  862W        W 1859   0.735   2.826   3.144
  863W        W 1860   4.825   4.081   6.240
  864W        W 1861   5.556   0.551   6.714
  865W        W 1862   6.728   3.740   2.280
  866W        W 1863   5.114   4.551   0.243
  867W        W 1864   7.038   6.970   1.620
  868W        W 1865   3.822   4.518   1.635
  869W        W 1866   0.496   5.291   6.603
  870W        W 1867   3.944   7.955   0.814
  871W        W 1868   2.529   7.416   0.197
  872W        W 1869   7.105   6.582   2.538
  873W        W 1870   3.681   1.747   6.533
  874W        W 1871   0.915   3.159   7.669
  875W        W 1872   1.332   0.205   1.773
  876W        W 1873   5.819   7.572   7.811
  877W        W 1874   4.667   0.544   5.546
  878W        W 1875   5.235   5.420   5.229
  879W        W 1876   3.351   4.753   2.063
  880W        W 1877   5.804   2.667   1.240
  881W        W 1878   5.441   2.297   0.320
  882W        W 1879   0.001   1.151   2.642
  883W        W 1880   6.472   4.314   2.496
  884W        W 1881   3.087   7.268   4.331
  885W        W 1882   2.723   7.498   7.370
  886W        W 1883   1.157   0.291   0.019
  887W        W 1884   2.906   7.091   6.429
  888W        W 1885   3.296   3.517   5.610
  889W        W 1886   5.860   4.474   0.835
  890W        W 1887   3.140   5.477   4.628
  891W        W 1888   6.893   6.693   6.422
  892W        W 1889   4.391   2.575   3.360
  893W        W 1890   2.906   6.379   4.289
  894W        W 1891   2.871   6.934   7.424
  895W        W 1892   1.796   1.134   5.320
  896W        W 1893   4.092   2.239   3.547
  897W        W 1894   1.500   0.397   0.922
  898W        W 1895   6.536   7.195   0.908
  899W        W 1896   5.036   3.241   1.043
  900W        W 1897   6.763   3.246   7.585
  901W        W 1898   7.846   6.979   6.494
  902W        W 1899   4.943   4.920   7.811
  903W        W 1900   4.566   3.157   5.852
  904W        W 1901   2.943   6.998   3.799
  905W        W 1902   6.608   1.653   0.232
  906W        W 1903   1.326   5.599   6.604
  907W        W 1904   2.104   3.453   2.841
  908W        W 1905   6.428   6.822   5.303
  909W        W 1906   3.958   6.118   6.932
  910W        W 1907   4.563   5.871   1.652
  911W        W 1908   0.128   4.512   3.746
  912W        W 1909   0.526   5.648   5.930
  913W        W 1910   1.515   2.327   6.240
  914W        W 1911   6.941   6.530   3.030
  915W        W 1912   5.805   4.177   6.037
  916W        W 1913   7.004   1.155   1.234
  917W        W 1914   0.388   3.811   5.758
  918W        W 1915   6.670   0.107   7.514
  919W        W 1916   5.202   7.213   4.833
  920W        W 1917   0.297   4.506   5.010
  921W        W 1918   0.271   4.677   5.534
  922W        W 1919   4.491   2.303   7.446
  923W        W 1920   4.296   4.753   2.859
  924W        W 1921   2.726   5.544   0.325
  925W        W 1922   3.582   0.331   2.203
  926W        W 1923   6.898   1.536   4.724
  927W        W 1924   2.483   1.644   3.901
  928W        W 1925   5.851   5.987   3.251
  929W        W 1926   4.864   5.840   1.046
  930W        W 1927   6.844   3.175   3.995
  931W        W 1928   0.518   3.301   1.767
  932W        W 1929   5.552   1.919   4.293
  933W        W 1930   6.644   6.410   3.846
  934W        W 1931   5.767   1.207   5.472
  935W        W 1932   3.918   3.500   2.945
  936W        W 1933   6.334   2.871   1.214
  937W        W 1934   7.759   4.400   7.436
  938W        W 1935   1.164   0.380   1.302
  939W        W 1936   7.745   7.456   3.841
  940W        W 1937   7.012   3.763   1.423
  941W        W 1938   2.536   2.445   3.485
  942W        W 1939   1.085   2.146   3.233
  943W        W 1940   2.839   4.805   5.160
  944W        W 1941   6.972   6.161   3.542
  945W        W 1942   0.454   3.077   0.898
  946W        W 1943   1.276   5.980   1.156
  947W        W 1944   4.396   0.151   0.998
  948W        W 1945   3.757   0.708   5.103
  949W        W 1946   4.030   5.915   7.447
  950W        W 1947   5.179   7.568   1.086
  951W        W 1948   3.198   1.616   3.374
  952W        W 1949   7.319   5.022   0.938
  953W        W 1950   6.514   6.061   2.216
  954W        W 1951   3.070   4.476   4.871
  955W        W 1952   3.013   2.894   6.527
  956W        W 1953   0.221   2.667   1.105
  957W        W 1954   5.527   2.920   0.879
  958W        W 1955   7.000   1.626   3.893
  959W        W 1956   6.018   0.832   1.040
  960W        W 1957   3.547   2.545   2.758
  961W        W 1958   2.600   5.145   3.858
  962W        W 1959   5.689   2.920   2.350
  963W        W 1960   6.357   6.420   4.224
  964W        W 1961   2.504   2.739   0.926
  965W        W 1962   2.973   3.959   2.779
  966W        W 1963   7.246   1.188   5.668
  967W        W 1964   5.555   0.154   7.125
  968W        W 1965   0.784   5.443   0.582
  969W        W 1966   4.456   7.403   5.796
  970W        W 1967   4.675   2.752   1.870
  971W        W 1968   2.269   6.175   1.319
  972W        W 1969   0.625   5.859   1.817
  973W        W 1970   4.490   2.764   5.433
  974W        W 1971   0.003   4.041   0.383
  975W        W 1972   2.220   4.757   6.135
  976W        W 1973   6.730   3.597   1.028
  977W        W 1974   7.406   6.131   6.248
  978W        W 1975   7.332   7.423   1.373
  979W        W 1976   4.591   4.252   3.345
  980W        W 1977   1.180   6.272   4.569
  981W        W 1978   6.335   6.960   4.023
  982W        W 1979   3.501   0.218   0.224
  983W        W 1980   3.316   5.053   5.264
  984W        W 1981   7.415   4.354   2.392
  985W        W 1982   2.056   1.011   2.319
  986W        W 1983   6.567   3.433   6.491
  987W        W 1984   4.602   6.999   0.081
  988W        W 1985   5.422   4.965   0.270
  989W        W 1986   6.280   6.292   7.885
  990W        W 1987   6.389   7.684   2.789
  991W        W 1988   0.843   4.714   3.298
  992W        W 1989   1.900   0.251   4.031
  993W        W 1990   5.108   6.126   4.576
  994W        W 1991   5.444   2.473   2.541
  995W        W 1992   5.227   4.048   0.225
  996W        W 1993   2.799   3.654   3.432
  997W        W 1994   3.530   7.966   7.123
  998W        W 1995   5.449   3.091   3.041
  999W        W 1996   6.268   4.709   2.901
 1000W        W 1997   5.641   5.643   3.982
 1001W        W 1998   7.776   5.874   7.021
 1002W        W 1999   4.843   4.339   0.739
 1003W        W 2000   0.195   1.231   0.158
 1004W        W 2001   7.146   0.763   5.058
 1005W        W 2002   7.476   2.066   4.116
 1006W        W 2003   3.928   6.100   6.005
 1007W        W 2004   2.580   4.977   6.336
 1008W        W 2005   1.569   5.996   5.173
 1009W        W 2006   4.949   4.583   3.597
 1010W        W 2007   3.142   6.756   5.561
 1011W        W 2008   1.693   3.645   5.545
 1012W        W 2009   1.664   3.058   4.620
 1013W        W 2010   6.564   2.752   0.738
 1014W        W 2011   2.044   4.616   6.907
 1015W        W 2012   4.830   4.724   1.087
 1016W        W 2013   3.505   2.500   0.225
 1017W        W 2014   7.628   3.244   1.543
 1018W        W 2015   5.518   2.090   3.465
 1019W        W 2016   2.215   3.016   6.558
 1020W        W 2017   6.436   0.366   3.845
 1021W        W 2018   7.726   2.999   7.922
 1022W        W 2019   6.981   4.385   5.350
 1023W        W 2020   2.470   5.045   6.798
 1024W        W 2021   2.699   4.150   4.825
 1025W        W 2022   0.296   1.363   4.181
 1026W        W 2023   0.897   3.350   1.464
 1027W        W 2024   3.471   5.128   2.408
 1028W        W 2025   3.724   1.509   3.200
 1029W        W 2026   1.622   3.374   2.600
 1030W        W 2027   4.354   7.543   3.313
 1031W        W 2028   7.034   5.787   3.834
 1032W        W 2029   5.145   6.054   6.881
 1033W        W 2030   3.004   0.352   0.136
 1034W        W 2031   4.364   0.457   7.512
 1035W        W 2032   0.452   4.205   7.641
 1036W        W 2033   1.032   4.046   6.922
 1037W        W 2034   4.476   0.410   1.428
 1038W        W 2035   2.368   6.709   7.733
 1039W        W 2036   5.465   5.845   0.242
 1040W        W 2037   3.341   5.214   1.690
 1041W        W 2038   5.398   2.125   6.481
 1042W        W 2039   4.562   1.263   0.791
 1043W        W 2040   1.465   6.290   7.881
 1044W        W 2041   2.826   6.337   7.059
 1045W        W 2042   4.891   6.400   5.183
 1046W        W 2043   0.909   2.548   5.958
 1047W        W 2044   2.804   7.722   6.385
 1048W        W 2045   1.821   0.355   0.484
 1049W        W 2046   0.775   7.207   6.385
 1050W        W 2047   1.403   1.589   1.921
 1051W        W 2048   1.342   1.666   2.598
 1052W        W 2049   6.060   1.427   2.206
 1053W        W 2050   5.338   1.827   0.456
 1054W        W 2051   2.874   4.892   1.459
 1055W        W 2052   1.834   0.195   2.522
 1056W        W 2053   6.239   7.300   5.351
 1057W        W 2054   4.969   4.629   2.548
 1058W        W 2055   0.777   3.832   3.508
 1059W        W 2056   5.149   6.670   6.909
 1060W        W 2057   6.085   1.512   6.300
 1061W        W 2058   1.638   2.544   6.727
 1062W        W 2059   0.385   4.034   4.797
 1063W        W 2060   6.067   3.769   3.175
 1064W        W 2061   0.482   1.379   5.674
 1065W        W 2062   0.242   4.853   3.310
 1066W        W 2063   3.665   3.092   5.783
 1067W        W 2064   5.309   6.489   1.442
 1068W        W 2065   3.938   1.744   6.996
 1069W        W 2066   0.524   3.550   3.870
 1070W        W 2067   0.786   3.743   2.892
 1071W        W 2068   4.999   6.683   5.574
 1072W        W 2069   1.681   4.256   4.748
 1073W        W 2070   0.938   1.418   6.009
 1074W        W 2071   5.440   4.797   3.544
 1075W        W 2072   4.939   7.991   5.248
 1076W        W 2073   1.130   4.601   0.022
 1077W        W 2074   4.667   0.450   5.005
 1078W        W 2075   6.608   3.807   1.743
 1079W        W 2076   3.360   2.001   4.042
 1080W        W 2077   4.866   2.164   0.978
 1081W        W 2078   7.818   0.030   0.051
 1082W        W 2079   1.154   2.878   1.361
 1083W        W 2080   1.303   5.078   1.776
 1084W        W 2081   0.217   5.175   1.127
 1085W        W 2082   2.460   5.193   5.213
 1086W        W 2083   3.241   7.779   2.356
 1087W        W 2084   5.998   1.762   4.130
 1088W        W 2085   1.353   3.223   6.577
 1089W        W 2086   2.632   3.609   0.299
 1090W        W 2087   0.016   0.103   4.674
 1091W        W 2088   0.791   3.735   5.499
 1092W        W 2089   6.061   1.630   1.049
 1093W        W 2090   4.359   1.204   1.277
 1094W        W 2091   7.505   0.577   6.032
 1095W        W 2092   2.201   1.277   5.682
 1096W        W 2093   7.471   0.804   3.433
 1097W        W 2094   4.863   6.071   2.328
 1098W        W 2095   0.007   7.473   7.485
 1099W        W 2096   0.304   6.595   0.094
 1100W        W 2097   6.980   3.724   5.751
 1101W        W 2098   7.267   0.286   3.432
 1102W        W 2099   0.667   1.209   3.347
 1103W        W 2100   6.712   4.690   7.639
 1104W        W 2101   1.447   1.939   2.961
 1105W        W 2102   3.201   5.503   0.365
 1106W        W 2103   5.634   6.317   5.254
 1107W        W 2104   0.985   5.964   3.333
 1108W        W 2105   6.265   4.431   5.015
 1109W        W 2106   6.228   7.698   3.540
 1110W        W 2107   3.817   0.298   5.391
 1111W        W 2108   2.476   0.913   7.524
 1112W        W 2109   6.121   3.427   7.186
 1113W        W 2110   4.966   3.303   3.037
 1114W        W 2111   7.453   2.320   5.309
 1115W        W 2112   7.640   7.552   7.172
 1116W        W 2113   2.261   0.455   0.278
 1117W        W 2114   0.618   6.358   1.648
 1118W        W 2115   5.950   2.835   4.406
 1119W        W 2116   3.496   0.941   7.629
 1120W        W 2117   3.541   0.154   2.723
 1121W        W 2118   6.605   4.633   3.981
 1122W        W 2119   2.097   5.571   7.236
 1123W        W 2120   3.938   4.747   0.571
 1124W        W 2121   5.639   1.258   2.512
 1125W        W 2122   6.580   2.519   7.484
 1126W        W 2123   3.073   6.453   2.278
 1127W        W 2124   1.672   7.002   0.107
 1128W        W 2125   4.136   5.789   0.177
 1129W        W 2126   6.582   2.142   0.206
 1130W        W 2127   3.323   6.757   7.436
 1131W        W 2128   4.897   3.388   6.199
 1132W        W 2129   3.152   1.405   6.034
 1133W        W 2130   4.086   7.244   4.600
 1134W        W 2131   4.753   6.501   4.682
 1135W        W 2132   7.787   1.222   1.973
 1136W        W 2133   0.973   2.798   0.005
 1137W        W 2134   2.719   3.061   6.067
 1138W        W 2135   0.311   2.970   6.510
 1139W        W 2136   3.989   1.950   5.393
 1140W        W 2137   4.207   2.560   7.067
 1141W        W 2138   3.727   2.511   2.244
 1142W        W 2139   4.923   1.444   5.399
 1143W        W 2140   2.640   2.948   4.716
 1144W        W 2141   3.330   4.647   6.497
 1145W        W 2142   2.232   2.089   3.938
 1146W        W 2143   5.287   2.289   7.423
 1147W        W 2144   7.015   5.663   5.231
 1148W        W 2145   3.494   5.968   3.092
 1149W        W 2146   5.105   5.474   6.177
 1150W        W 2147   7.078   6.166   5.351
 1151W        W 2148   6.122   1.669   0.272
 1152W        W 2149   0.562   6.696   4.224
 1153W        W 2150   7.264   2.924   4.477
 1154W        W 2151   5.446   0.715   3.238
 1155W        W 2152   1.736   7.025   0.934
 1156W        W 2153   3.494   1.117   5.266
 1157W        W 2154   7.317   2.931   5.472
 1158W        W 2155   1.718   5.164   5.019
 1159W        W 2156   5.900   4.294   2.348
 1160W        W 2157   0.744   0.647   3.507
 1161W        W 2158   1.061   2.166   6.440
 1162W        W 2159   3.500   4.993   3.530
 1163W        W 2160   1.456   6.088   6.783
 1164W        W 2161   0.721   5.777   4.064
 1165W        W 2162   2.224   4.029   1.619
 1166W        W 2163   6.049   4.942   5.816
 1167W        W 2164   4.486   1.512   3.592
 1168W        W 2165   6.821   2.684   4.519
 1169W        W 2166   0.176   4.104   4.233
 1170W        W 2167   4.662   3.662   5.389
 1171W        W 2168   3.102   2.998   5.602
 1172W        W 2169   2.564   0.491   4.434
 1173W        W 2170   6.150   4.255   5.563
 1174W        W 2171   2.932   6.778   4.683
 1175W        W 2172   0.834   4.074   5.082
 1176W        W 2173   0.487   1.568   6.136
 1177W        W 2174   3.816   3.033   2.810
 1178W        W 2175   0.980   6.467   3.292
 1179W        W 2176   3.674   6.573   5.610
 1180W        W 2177   6.041   4.914   7.650
 1181W        W 2178   1.498   1.382   4.905
 1182W        W 2179   4.399   2.224   1.137
 1183W        W 2180   1.079   0.800   4.328
 1184W        W 2181   6.991   5.747   0.853
 1185W        W 2182   3.953   0.469   0.623
 1186W        W 2183   5.736   6.995   6.161
 1187W        W 2184   0.339   7.377   1.948
 1188W        W 2185   1.817   7.156   7.400
 1189W        W 2186   1.042   6.311   7.583
 1190W        W 2187   1.148   4.542   6.912
 1191W        W 2188   4.388   0.124   0.498
 1192W        W 2189   6.891   5.013   7.314
 1193W        W 2190   4.201   3.828   2.580
 1194W        W 2191   6.918   4.515   6.020
 1195W        W 2192   7.212   6.156   2.290
 1196W        W 2193   4.420   4.149   5.220
 1197W        W 2194   6.741   2.980   6.628
 1198W        W 2195   5.777   5.716   7.713
 1199W        W 2196   1.153   2.669   0.473
 1200W        W 2197   6.464   2.630   6.372
 1201W        W 2198   1.910   7.212   0.497
 1202W        W 2199   2.532   6.671   0.820
 1203W        W 2200   3.777   5.041   3.983
 1204W        W 2201   6.230   5.550   1.949
 1205W        W 2202   1.666   2.182   2.557
 1206W        W 2203   2.492   6.273   2.169
 1207W        W 2204   2.663   7.517   0.802
 1208W        W 2205   6.420   2.814   4.139
 1209W        W 2206   2.111   3.553   1.486
 1210W        W 2207   0.056   0.427   2.832
 1211W        W 2208   1.117   7.647   6.069
 1212W        W 2209   6.219   5.873   6.812
 1213W        W 2210   2.025   3.961   7.673
 1214W        W 2211   2.661   4.839   5.864
 1215W        W 2212   5.243   3.528   3.408
 1216W        W 2213   3.781   0.367   1.725
 1217W        W 2214   4.343   4.692   5.384
 1218W        W 2215   7.508   0.166   2.258
 1219W        W 2216   5.340   6.059   2.541
 1220W        W 2217   2.514   3.844   0.708
 1221W        W 2218   6.884   0.578   7.417
 1222W        W 2219   4.079   6.023   4.351
 1223W        W 2220   4.425   1.954   7.083
 1224W        W 2221   3.688   2.512   3.309
 1225W        W 2222   0.591   5.175   3.517
 1226W        W 2223   4.496   2.126   2.183
 1227W        W 2224   5.587   2.360   1.548
 1228W        W 2225   3.412   2.518   6.484
 1229W        W 2226   1.800   6.958   4.553
 1230W        W 2227   6.351   1.034   2.079
 1231W        W 2228   0.347   5.778   5.098
 1232W        W 2229   4.602   2.448   0.681
 1233W        W 2230   0.176   3.893   3.716
 1234W        W 2231   2.342   0.988   4.635
 1235W        W 2232   6.373   3.359   3.339
 1236W        W 2233   3.810   5.574   0.861
 1237W        W 2234   5.481   0.448   7.577
 1238W        W 2235   4.876   1.732   6.991
 1239W        W 2236   0.172   5.419   6.260
 1240W        W 2237   1.607   3.627   7.575
 1241W        W 2238   4.993   6.619   1.777
 1242W        W 2239   0.447   3.259   0.140
 1243W        W 2240   6.302   6.449   0.468
 1244W        W 2241   2.023   4.775   4.566
 1245W        W 2242   3.927   1.219   1.525
 1246W        W 2243   1.936   7.458   1.801
 1247W        W 2244   2.946   3.010   7.081
 1248W        W 2245   3.607   4.399   5.713
 1249W        W 2246   6.651   4.122   5.875
 1250W        W 2247   6.839   0.103   0.252
 1251W        W 2248   3.229   2.330   2.286
 1252W        W 2249   1.304   2.260   7.257
 1253W        W 2250   0.355   6.905   2.535
 1254W        W 2251   6.057   2.553   2.331
 1255W        W 2252   6.922   4.117   1.982
 1256W        W 2253   1.998   4.181   3.126
 1257W        W 2254   3.362   7.821   7.687
 1258W        W 2255   3.696   3.430   6.748
 1259W        W 2256   3.728   0.913   6.345
 1260W        W 2257   3.315   4.899   2.817
 1261W        W 2258   5.217   4.981   5.881
 1262W        W 2259   0.594   0.090   6.022
 1263W        W 2260   3.032   1.755   2.519
 1264W        W 2261   4.184   5.626   5.296
 1265W        W 2262   2.294   6.490   1.731
 1266W        W 2263   5.000   2.260   2.551
 1267W        W 2264   5.754   4.647   7.351
 1268W        W 2265   4.997   6.915   4.465
 1269W        W 2266   0.936   4.322   6.089
 1270W        W 2267   0.833   7.622   6.778
 1271W        W 2268   4.062   5.318   4.870
 1272W        W 2269   2.040   0.260   5.024
 1273W        W 2270   0.862   6.538   0.251
 1274W        W 2271   5.894   7.172   3.957
 1275W        W 2272   1.124   3.015   2.735
 1276W        W 2273   3.539   4.136   4.956
 1277W        W 2274   1.384   3.156   1.782
 1278W        W 2275   3.578   1.992   7.916
 1279W        W 2276   0.285   5.537   3.614
 1280W        W 2277   0.325   0.641   1.620
 1281W        W 2278   1.853   7.749   2.223
 1282W        W 2279   1.550   0.760   5.615
 1283W        W 2280   3.356   7.307   0.143
 1284W        W 2281   5.951   7.552   2.617
 1285W        W 2282   4.165   0.077   3.431
 1286W        W 2283   0.764   5.254   4.025
 1287W        W 2284   7.025   4.993   6.147
 1288W        W 2285   2.686   1.844   5.857
 1289W        W 2286   1.355   0.207   2.311
 1290W        W 2287   4.635   5.394   4.002
 1291W        W 2288   4.323   6.866   3.803
 1292W        W 2289   6.591   2.008   1.994
 1293W        W 2290   2.815   2.610   7.300
 1294W        W 2291   6.482   3.851   2.716
 1295W        W 2292   5.027   1.383   6.502
 1296W        W 2293   5.171   7.381   2.880
 1297W        W 2294   0.061   1.487   5.192
 1298W        W 2295   4.114   0.242   2.343
 1299W        W 2296   4.686   0.030   7.445
 1300W        W 2297   5.301   0.539   0.683
 1301W        W 2298   3.173   1.837   7.517
 1302W        W 2299   5.814   0.605   7.206
 1303W        W 2300   2.414   3.338   3.550
 1304W        W 2301   5.947   0.852   4.478
 1305W        W 2302   7.072   0.464   5.924
 1306W        W 2303   5.108   5.571   3.873
 1307W        W 2304   6.119   4.913   3.718
 1308W        W 2305   6.069   3.507   6.110
 1309W        W 2306   7.708   1.714   7.231
 1310W        W 2307   1.076   5.248   4.481
 1311W        W 2308   4.952   5.119   0.358
 1312W        W 2309   3.882   7.454   1.443
 1313W        W 2310   7.136   7.857   5.127
 1314W        W 2311   1.508   2.550   1.237
 1315W        W 2312   4.984   0.197   5.627
 1316W        W 2313   1.266   3.859   5.422
 1317W        W 2314   2.767   6.856   2.116
 1318W        W 2315   2.694   1.833   6.786
 1319W        W 2316   1.776   3.968   1.882
 1320W        W 2317   0.937   6.741   7.292
 1321W        W 2318   3.873   2.918   0.695
 1322W        W 2319   4.633   1.684   6.480
 1323W        W 2320   3.132   5.419   7.093
 1324W        W 2321   5.669   0.753   6.255
 1325W        W 2322   3.789   6.089   2.538
 1326W        W 2323   2.176   6.495   3.556
 1327W        W 2324   3.637   6.393   4.251
 1328W        W 2325   2.105   6.729   6.482
 1329W        W 2326   0.188   7.660   5.751
 1330W        W 2327   6.312   6.895   0.582
 1331W        W 2328   6.740   4.741   2.733
 1332W        W 2329   5.952   6.594   1.539
 1333W        W 2330   3.296   2.774   7.354
 1334W        W 2331   6.362   5.429   3.533
 1335W        W 2332   2.922   5.931   5.199
 1336W        W 2333   5.128   4.140   2.311
 1337W        W 2334   3.305   5.931   0.083
 1338W        W 2335   6.758   2.202   4.719
 1339W        W 2336   5.590   6.386   6.761
 1340W        W 2337   1.693   7.448   6.320
 1341W        W 2338   0.718   1.108   1.178
 1342W        W 2339   4.543   5.476   0.451
 1343W        W 2340   6.331   0.780   2.972
 1344W        W 2341   4.908   4.412   5.364
 1345W        W 2342   7.237   5.494   2.855
 1346W        W 2343   3.796   6.571   6.955
 1347W        W 2344   1.778   6.030   1.271
 1348W        W 2345   7.591   2.620   1.561
 1349W        W 2346   1.116   5.761   4.478
 1350W        W 2347   5.633   5.043   6.633
 1351W        W 2348   3.902   6.224   5.291
 1352W        W 2349   7.548   7.130   7.445
 1353W        W 2350   4.078   6.811   1.228
 1354W        W 2351   7.313   4.817   7.484
 1355W        W 2352   7.388   6.661   7.393
 1356W        W 2353   2.617   2.730   5.294
 1357W        W 2354   0.066   4.405   4.621
 1358W        W 2355   0.529   5.970   3.629
 1359W        W 2356   1.082   5.121   3.580
 1360W        W 2357   6.769   6.635   7.704
 1361W        W 2358   0.785   4.239   2.560
 1362W        W 2359   5.822   4.122   0.417
 1363W        W 2360   3.554   3.598   7.563
 1364W        W 2361   1.324   3.160   2.276
 1365W        W 2362   1.894   1.102   7.970
 1366W        W 2363   2.800   4.596   3.966
 1367W        W 2364   4.534   1.931   3.184
 1368W        W 2365   1.318   0.987   7.823
 1369W        W 2366   5.751   4.630   2.029
 1370W        W 2367   5.462   7.445   5.905
 1371W        W 2368   3.398   6.171   5.759
 1372W        W 2369   1.932   6.657   7.394
 1373W        W 2370   5.947   3.208   1.205
 1374W        W 2371   3.313   3.006   6.108
 1375W        W 2372   7.018   4.293   7.774
 1376W        W 2373   5.677   0.823   1.485
 1377W        W 2374   4.046   2.412   5.076
 1378W        W 2375   7.788   3.530   1.096
 1379W        W 2376   0.514   7.411   3.602
 1380W        W 2377   6.063   2.971   2.700
 1381W        W 2378   6.957   3.770   7.577
 1382W        W 2379   4.540   2.522   6.452
 1383W        W 2380   3.530   0.381   6.928
 1384W        W 2381   7.183   0.281   0.651
 1385W        W 2382   3.573   2.011   3.508
 1386W        W 2383   7.941   6.739   7.309
 1387W        W 2384   5.642   1.206   5.954
 1388W        W 2385   3.708   0.045   6.418
 1389W        W 2386   5.034   1.272   4.762
 1390W        W 2387   0.590   4.329   2.097
 1391W        W 2388   1.725   4.283   6.180
 1392W        W 2389   4.089   2.308   3.037
 1393W        W 2390   3.429   0.065   4.510
 1394W        W 2391   6.949   0.172   3.822
 1395W        W 2392   1.038   3.576   7.433
 1396W        W 2393   2.652   5.645   1.216
 1397W        W 2394   6.126   6.337   3.747
 1398W        W 2395   2.175   1.295   1.874
 1399W        W 2396   1.999   3.934   4.185
 1400W        W 2397   0.093   1.727   6.402
 1401W        W 2398   1.754   2.981   6.474
 1402W        W 2399   6.848   5.103   3.094
 1403W        W 2400   5.235   1.803   2.756
 1404W        W 2401   1.685   1.293   0.421
 1405W        W 2402   3.094   5.313   2.624
 1406W        W 2403   7.130   4.711   6.527
 1407W        W 2404   5.257   2.207   6.949
 1408W        W 2405   0.545   6.512   7.548
 1409W        W 2406   1.963   6.059   5.524
 1410W        W 2407   0.439   1.282   2.433
 1411W        W 2408   0.256   3.930   1.979
 1412W        W 2409   0.659   7.191   4.113
 1413W        W 2410   0.855   0.673   0.025
 1414W        W 2411   1.077   4.228   4.581
 1415W        W 2412   5.578   0.261   5.410
 1416W        W 2413   2.568   4.130   3.144
 1417W        W 2414   6.233   7.846   2.339
 1418W        W 2415   5.847   3.300   0.705
 1419W        W 2416   1.049   2.854   5.481
 1420W        W 2417   3.349   0.740   2.617
 1421W        W 2418   3.414   0.026   3.754
 1422W        W 2419   5.279   3.992   3.233
 1423W        W 2420   1.204   1.112   5.672
 1424W        W 2421   5.867   1.910   6.439
 1425W        W 2422   6.972   4.184   3.358
 1426W        W 2423   1.757   5.758   2.386
 1427W        W 2424   4.545   0.159   7.952
 1428W        W 2425   2.785   0.380   0.604
 1429W        W 2426   7.453   7.326   6.059
 1430W        W 2427   7.622   7.395   6.668
 1431W        W 2428   4.467   7.370   2.231
 1432W        W 2429   5.881   6.534   6.110
 1433W        W 2430   4.576   5.573   6.286
 1434W        W 2431   4.989   5.452   0.756
 1435W        W 2432   4.415   1.467   7.041
 1436W        W 2433   7.622   2.966   7.407
 1437W        W 2434   0.696   0.010   4.939
 1438W        W 2435   5.107   6.191   5.599
 1439W        W 2436   2.370   4.307   4.069
 1440W        W 2437   2.765   6.116   0.203
 1441W        W 2438   6.542   2.731   2.102
 1442W        W 2439   5.764   6.814   0.460
 1443W        W 2440   0.607   5.107   5.786
 1444W        W 2441   4.776   6.357   6.772
 1445W        W 2442   5.685   5.510   5.672
 1446W        W 2443   7.032   1.800   7.258
 1447W        W 2444   7.466   0.457   7.432
 1448W        W 2445   2.976   2.602   0.038
 1449W        W 2446   7.414   3.625   6.082
 1450W        W 2447   7.444   6.258   6.994
 1451W        W 2448   0.981   1.980   6.889
 1452W        W 2449   1.832   1.599   6.802
 1453W        W 2450   2.094   1.166   2.820
 1454W        W 2451   2.184   7.558   7.565
 1455W        W 2452   7.515   7.059   1.667
 1456W        W 2453   5.632   6.273   0.555
 1457W        W 2454   7.772   5.007   2.868
 1458W        W 2455   0.832   7.449   1.820
 1459W        W 2456   2.543   3.552   1.080
 1460W        W 2457   1.489   3.457   3.598
 1461W        W 2458   4.464   7.476   4.318
 1462W        W 2459   7.209   1.608   1.007
 1463W        W 2460   7.819   2.425   0.823
 1464W        W 2461   7.684   3.770   1.542
 1465W        W 2462   1.791   1.401   2.178
 1466W        W 2463   4.021   1.985   0.088
 1467W        W 2464   4.175   5.704   2.109
 1468W        W 2465   3.777   5.363   5.362
 1469W        W 2466   0.808   4.842   0.512
 1470W        W 2467   0.557   0.767   0.837
 1471W        W 2468   7.396   2.144   2.285
 1472W        W 2469   2.719   4.465   6.255
 1473W        W 2470   3.286   1.367   7.418
 1474W        W 2471   6.292   1.655   3.345
 1475W        W 2472   4.249   5.123   3.707
 1476W        W 2473   6.108   0.476   2.685
 1477W        W 2474   5.746   0.169   2.180
 1478W        W 2475   0.618   1.067   6.389
 1479W        W 2476   3.487   2.871   3.580
 1480W        W 2477   5.510   5.288   6.214
 1481W        W 2478   0.645   6.649   2.890
 1482W        W 2479   0.532   6.204   3.129
 1483W        W 2480   3.502   4.934   4.472
 1484W        W 2481   3.043   0.357   7.017
 1485W        W 2482   3.017   4.769   2.442
 1486W        W 2483   6.702   1.587   1.012
 1487W        W 2484   7.654   7.606   4.340
 1488W        W 2485   2.018   2.511   2.460
 1489W        W 2486   6.307   0.071   1.782
 1490W        W 2487   5.339   2.579   3.728
 1491W        W 2488   7.373   3.802   3.851
 1492W        W 2489   3.151   2.240   0.425
 1493W        W 2490   2.520   0.357   6.877
 1494W        W 2491   7.254   2.918   6.584
 1495W        W 2492   0.615   4.878   2.424
 1496W        W 2493   0.527   1.313   7.570
 1497W        W 2494   7.116   5.438   7.039
 1498W        W 2495   7.485   2.874   6.173
 1499W        W 2496   7.608   5.585   6.318
 1500W        W 2497   0.213   6.878   1.741
 1501W        W 2498   6.753   7.597   4.938
 1502W        W 2499   3.436   4.257   2.072
 1503W        W 2500   7.335   1.510   1.843
 1504W        W 2501   0.624   7.690   4.069
 1505W        W 2502   1.189   5.528   3.936
 1506W        W 2503   1.650   1.108   1.739
 1507W        W 2504   4.816   2.432   7.080
 1508W        W 2505   0.464   4.182   5.391
 1509W        W 2506   7.248   0.490   4.654
 1510W        W 2507   0.710   6.439   5.324
 1511W        W 2508   1.578   0.561   1.513
 1512W        W 2509   1.390   3.206   7.456
 1513W        W 2510   5.150   3.670   7.039
 1514W        W 2511   5.962   7.482   3.126
 1515W        W 2512   1.789   5.157   2.912
 1516W        W 2513   7.661   4.491   5.009
 1517W        W 2514   6.670   2.988   3.101
 1518W        W 2515   5.513   6.056   4.835
 1519W        W 2516   1.410   4.579   4.291
 1520W        W 2517   5.463   1.985   5.925
 1521W        W 2518   0.329   1.328   6.700
 1522W        W 2519   0.177   2.228   6.485
 1523W        W 2520   4.955   7.737   2.542
 1524W        W 2521   3.162   2.630   5.248
 1525W        W 2522   5.435   6.421   5.905
 1526W        W 2523   2.795   3.487   5.861
 1527W        W 2524   5.505   4.971   7.689
 1528W        W 2525   5.537   4.004   1.517
 1529W        W 2526   6.639   4.827   0.731
 1530W        W 2527   3.276   1.815   5.063
 1531W        W 2528   1.989   5.266   3.367
 1532W        W 2529   1.441   0.409   2.745
 1533W        W 2530   6.397   3.710   5.643
 1534W        W 2531   7.056   0.768   6.982
 1535W        W 2532   5.358   4.297   3.635
 1536W        W 2533   7.061   0.525   2.126
 1537W        W 2534   0.576   4.406   7.164
 1538W        W 2535   1.734   0.332   7.420
 1539W        W 2536   1.878   5.033   5.482
 1540W        W 2537   5.772   2.401   0.733
 1541W        W 2538   4.438   5.155   5.178
 1542W        W 2539   1.765   6.611   2.013
 1543W        W 2540   0.692   1.024   3.893
 1544W        W 2541   7.767   7.646   2.235
 1545W        W 2542   5.526   5.410   6.960
 1546W        W 2543   1.990   2.427   0.388
 1547W        W 2544   2.868   5.553   4.098
 1548W        W 2545   5.858   2.253   5.700
 1549W        W 2546   0.274   4.709   0.782
 1550W        W 2547   2.491   4.948   4.695
 1551W        W 2548   2.116   7.090   7.854
 1552W        W 2549   6.531   4.885   2.258
 1553W        W 2550   3.216   3.324   6.769
 1554W        W 2551   2.016   0.649   2.763
 1555W        W 2552   2.458   2.247   5.464
 1556W        W 2553   6.257   0.049   7.804
 1557W        W 2554   2.647   5.507   6.980
 1558W        W 2555   5.881   5.785   2.260
 1559W        W 2556   2.657   2.848   4.251
 1560W        W 2557   7.808   6.537   3.566
 1561W        W 2558   3.516   7.607   4.272
 1562W        W 2559   3.424   6.925   3.613
 1563W        W 2560   2.790   1.854   5.222
 1564W        W 2561   0.483   0.297   6.555
 1565W        W 2562   1.912   1.926   2.155
 1566W        W 2563   3.943   1.522   7.879
 1567W        W 2564   4.429   4.711   7.357
 1568W        W 2565   1.396   6.712   7.553
 1569W        W 2566   4.099   3.364   5.994
 1570W        W 2567   7.494   1.191   0.984
 1571W        W 2568   3.853   4.818   0.070
 1572W        W 2569   5.960   1.198   4.977
 1573W        W 2570   5.033   5.651   0.213
 1574W        W 2571   5.166   3.297   2.554
 1575W        W 2572   6.900   2.318   0.600
 1576W        W 2573   1.111   2.459   6.875
 1577W        W 2574   4.177   4.628   3.946
 1578W        W 2575   5.798   2.784   3.902
 1579W        W 2576   7.073   4.583   3.715
 1580W        W 2577   7.179   3.464   7.307
 1581W        W 2578   1.875   5.670   2.863
 1582W        W 2579   1.249   4.190   0.839
 1583W        W 2580   4.097   2.644   2.627
 1584W        W 2581   4.638   6.353   5.644
 1585W        W 2582   3.580   3.200   1.064
 1586W        W 2583   2.526   3.282   7.359
 1587W        W 2584   1.962   0.517   3.593
 1588W        W 2585   2.521   4.185   0.344
 1589W        W 2586   1.413   2.944   7.000
 1590W        W 2587   5.574   2.616   4.746
 1591W        W 2588   3.474   0.799   4.361
 1592W        W 2589   1.566   1.004   6.819
 1593W        W 2590   2.584   5.970   4.201
 1594W        W 2591   0.985   4.245   5.589
 1595W        W 2592   7.237   3.157   3.177
 1596W        W 2593   1.110   1.259   3.675
 1597W        W 2594   5.261   0.686   1.193
 1598W        W 2595   5.874   0.817   3.559
 1599W        W 2596   1.037   0.452   5.780
 1600W        W 2597   6.299   6.001   5.856
 1601W        W 2598   6.143   0.541   2.088
 1602W        W 2599   5.531   6.685   1.928
 1603W        W 2600   2.042   2.409   3.534
 1604W        W 2601   4.395   2.448   3.909
 1605W        W 2602   2.566   1.447   6.183
 1606W        W 2603   4.419   0.971   7.169
 1607W        W 2604   2.848   5.053   4.266
 1608W        W 2605   5.473   6.391   4.374
 1609W        W 2606   7.386   3.899   0.274
 1610W        W 2607   1.230   7.334   0.843
 1611W        W 2608   2.223   1.625   6.504
 1612W        W 2609   6.641   4.362   0.719
 1613W        W 2610   3.288   3.889   5.962
 1614W        W 2611   7.706   2.435   2.812
 1615W        W 2612   0.890   2.120   4.923
 1616W        W 2613   2.443   6.161   5.267
 1617W        W 2614   5.567   7.750   2.973
 1618W        W 2615   4.133   5.179   7.571
 1619W        W 2616   1.720   5.963   4.000
 1620W        W 2617   6.384   7.461   3.976
 1621W        W 2618   0.612   2.337   0.724
 1622W        W 2619   4.255   5.130   6.119
 1623W        W 2620   6.893   2.676   4.015
 1624W        W 2621   7.152   4.350   2.928
 1625W        W 2622   2.199   1.995   6.868
 1626W        W 2623   0.589   3.749   2.325
 1627W        W 2624   5.467   4.137   5.269
 1628W        W 2625   7.769   0.007   0.609
 1629W        W 2626   3.719   0.018   3.235
 1630W        W 2627   5.418   6.375   7.265
 1631W        W 2628   4.813   4.765   3.028
 1632W        W 2629   2.863   5.175   5.543
 1633W        W 2630   0.153   2.682   0.156
 1634W        W 2631   2.775   4.943   2.837
 1635W        W 2632   2.021   3.080   1.712
 1636W        W 2633   6.124   0.950   6.361
 1637W        W 2634   7.318   7.049   6.474
 1638W        W 2635   4.045   6.518   2.556
 1639W        W 2636   3.916   2.169   2.571
 1640W        W 2637   0.726   0.133   1.450
 1641W        W 2638   4.917   4.577   6.107
 1642W        W 2639   5.090   2.202   1.444
 1643W        W 2640   0.942   0.045   7.397
 1644W        W 2641   4.214   6.426   0.818
 1645W        W 2642   0.938   2.908   6.753
 1646W        W 2643   3.070   3.944   5.142
 1647W        W 2644   0.766   6.490   4.750
 1648W        W 2645   3.714   6.869   0.295
 1649W        W 2646   4.883   0.308   0.446
 1650W        W 2647   2.308   3.787   7.320
 1651W        W 2648   2.179   4.201   5.958
 1652W        W 2649   4.270   4.141   6.190
 1653W        W 2650   4.616   1.846   1.382
 1654W        W 2651   2.951   1.450   3.834
 1655W        W 2652   1.573   0.384   4.582
 1656W        W 2653   1.293   4.122   1.702
 1657W        W 2654   1.215   3.061   5.914
 1658W        W 2655   0.454   0.381   2.065
 1659W        W 2656   2.170   4.913   3.719
 1660W        W 2657   6.632   3.002   3.596
 1661W        W 2658   4.296   3.258   4.496
 1662W        W 2659   5.036   3.868   1.023
 1663W        W 2660   2.112   6.221   4.236
 1664W        W 2661   3.852   3.025   1.763
 1665W        W 2662   3.671   7.465   4.715
 1666W        W 2663   4.329   4.651   0.978
 1667W        W 2664   0.715   6.990   4.646
 1668W        W 2665   0.548   2.462   1.569
 1669W        W 2666   2.172   6.763   0.433
 1670W        W 2667   1.522   4.102   4.276
 1671W        W 2668   0.988   3.514   5.086
 1672W        W 2669   6.074   4.177   2.809
 1673W        W 2670   4.080   4.237   6.683
 1674W        W 2671   6.735   0.824   0.649
 1675W        W 2672   4.665   1.165   0.297
 1676W        W 2673   0.621   6.282   2.585
 1677W        W 2674   4.929   5.654   6.654
 1678W        W 2675   4.505   1.092   6.669
 1679W        W 2676   7.285   7.605   3.871
 1680W        W 2677   6.005   7.506   5.724
 1681W        W 2678   3.982   4.589   2.126
 1682W        W 2679   5.631   0.344   2.737
 1683W        W 2680   5.927   2.244   2.715
 1684W        W 2681   5.787   1.949   5.289
 1685W        W 2682   3.972   0.976   2.861
 1686W        W 2683   7.447   6.249   5.807
 1687W        W 2684   2.034   0.786   1.824
 1688W        W 2685   4.717   4.169   0.270
 1689W        W 2686   0.612   7.069   7.615
 1690W        W 2687   2.352   5.459   0.670
 1691W        W 2688   1.368   7.756   1.100
 1692W        W 2689   4.551   5.998   4.611
 1693W        W 2690   0.932   1.536   7.806
 1694W        W 2691   5.969   2.937   7.246
 1695W        W 2692   3.856   3.053   6.327
 1696W        W 2693   2.370   6.774   1.299
 1697W        W 2694   4.830   1.667   0.222
 1698W        W 2695   7.390   6.099   1.076
 1699W        W 2696   3.657   1.297   6.978
 1700W        W 2697   4.447   4.458   4.385
 1701W        W 2698   6.983   6.902   2.143
 1702W        W 2699   3.032   2.300   0.911
 1703W        W 2700   3.076   6.488   3.479
 1704W        W 2701   3.312   3.741   7.089
 1705W        W 2702   3.918   2.826   0.213
 1706W        W 2703   4.656   6.791   7.052
 1707W        W 2704   3.806   6.906   2.221
 1708W        W 2705   7.464   4.337   1.413
 1709W        W 2706   1.634   1.361   7.526
 1710W        W 2707   0.824   4.641   7.502
 1711W        W 2708   3.539   2.936   6.742
 1712W        W 2709   0.574   4.829   6.865
 1713W        W 2710   0.809   6.249   6.416
 1714W        W 2711   1.505   1.445   5.910
 1715W        W 2712   2.334   4.612   3.045
 1716W        W 2713   6.421   3.439   1.378
 1717W        W 2714   2.523   3.767   3.990
 1718W        W 2715   5.718   6.797   7.143
 1719W        W 2716   4.141   2.110   4.654
 1720W        W 2717   3.156   3.795   2.145
 1721W        W 2718   7.337   2.077   0.571
 1722W        W 2719   5.039   2.898   5.793
 1723W        W 2720   6.321   3.321   0.828
 1724W        W 2721   4.276   5.978   5.638
 1725W        W 2722   1.000   2.528   3.516
 1726W        W 2723   5.976   1.385   1.665
 1727W        W 2724   2.449   1.452   6.961
 1728W        W 2725   7.434   7.999   7.757
 1729W        W 2726   6.953   3.751   4.740
 1730W        W 2727   3.286   7.186   5.262
 1731W        W 2728   3.228   1.384   4.333
 1732W        W 2729   1.714   7.015   3.110
 1733W        W 2730   4.507   1.992   3.671
 1734W        W 2731   4.557   0.474   6.112
 1735W        W 2732   2.732   1.795   4.676
 1736W        W 2733   6.096   7.198   1.694
 1737W        W 2734   3.501   5.123   1.203
 1738W        W 2735   0.218   3.341   0.548
 1739W        W 2736   1.149   1.280   0.176
 1740W        W 2737   6.651   5.012   3.663
 1741W        W 2738   2.243   6.374   6.846
 1742W        W 2739   3.839   5.018   1.902
 1743W        W 2740   6.737   1.683   5.535
 1744W        W 2741   2.236   1.807   3.504
 1745W        W 2742   0.145   7.014   7.565
 1746W        W 2743   6.803   1.985   6.028
 1747W        W 2744   5.795   7.642   5.286
 1748W        W 2745   6.118   6.671   2.613
 1749W        W 2746   1.076   6.421   0.699
 1750W        W 2747   4.283   4.278   0.635
 1751W        W 2748   3.646   5.627   4.519
 1752W        W 2749   7.584   1.423   3.453
 1753W        W 2750   5.750   0.903   2.899
 1754W        W 2751   5.680   3.808   3.481
 1755W        W 2752   2.062   0.753   5.628
 1756W        W 2753   6.958   3.903   5.267
 1757W        W 2754   1.268   3.395   4.717
 1758W        W 2755   4.620   4.195   1.225
 1759W        W 2756   0.701   2.712   7.109
 1760W        W 2757   0.211   6.146   2.027
 1761W        W 2758   4.886   3.186   5.348
 1762W        W 2759   3.319   6.605   1.799
 1763W        W 2760   3.081   6.574   6.422
 1764W        W 2761   0.478   5.827   0.451
 1765W        W 2762   5.625   4.828   4.497
 1766W        W 2763   1.130   4.680   3.813
 1767W        W 2764   7.385   6.463   0.108
 1768W        W 2765   4.080   1.861   5.925
 1769W        W 2766   6.219   3.480   1.869
 1770W        W 2767   0.039   1.014   4.501
 1771W        W 2768   3.275   5.192   5.873
 1772W        W 2769   1.488   3.470   6.015
 1773W        W 2770   5.521   7.260   0.821
 1774W        W 2771   1.212   4.380   1.303
 1775W        W 2772   6.844   4.263   6.637
 1776W        W 2773   1.089   6.075   1.719
 1777W        W 2774   0.263   5.949   2.745
 1778W        W 2775   4.371   5.161   7.115
 1779W        W 2776   2.051   0.698   1.134
 1780W        W 2777   5.958   1.234   0.640
 1781W        W 2778   3.764   1.533   2.223
 1782W        W 2779   5.474   0.387   4.764
 1783W        W 2780   7.461   4.369   3.499
 1784W        W 2781   5.412   4.293   0.654
 1785W        W 2782   5.084   2.527   6.522
 1786W        W 2783   2.245   1.882   6.034
 1787W        W 2784   1.216   2.837   3.160
 1788W        W 2785   3.278   0.957   6.817
 1789W        W 2786   7.207   7.464   0.255
 1790W        W 2787   5.989   2.246   0.315
 1791W        W 2788   7.474   4.896   3.837
 1792W        W 2789   0.162   5.335   3.125
 1793W        W 2790   0.639   0.516   3.984
 1794W        W 2791   5.772   5.408   1.892
 1795W        W 2792   4.848   2.928   6.281
 1796W        W 2793   1.862   5.139   2.330
 1797W        W 2794   5.347   1.805   7.285
 1798W        W 2795   4.147   1.825   2.859
 1799W        W 2796   0.173   6.455   2.522
 1800W        W 2797   5.135   4.834   0.711
 1801W        W 2798   3.278   2.746   0.980
 1802W        W 2799   0.910   2.543   2.820
 1803W        W 2800   7.288   0.628   2.954
 1804W        W 2801   5.340   0.979   6.624
 1805W        W 2802   6.087   0.257   5.507
 1806W        W 2803   1.905   5.102   4.144
 1807W        W 2804   6.699   5.577   6.068
 1808W        W 2805   1.514   6.414   4.897
 1809W        W 2806   3.148   2.064   6.582
 1810W        W 2807   7.590   4.065   6.029
 1811W        W 2808   2.633   6.592   6.671
 1812W        W 2809   7.014   0.758   5.575
 1813W        W 2810   3.049   3.194   0.397
 1814W        W 2811   7.161   2.308   6.846
 1815W        W 2812   5.751   4.509   2.904
 1816W        W 2813   2.008   2.416   2.989
 1817W        W 2814   6.247   5.436   5.905
 1818W        W 2815   0.508   3.635   5.074
 1819W        W 2816   5.797   3.576   0.022
 1820W        W 2817   6.622   0.755   5.958
 1821W        W 2818   1.246   4.714   4.776
 1822W        W 2819   2.197   0.056   1.894
 1823W        W 2820   2.090   3.210   2.385
 1824W        W 2821   3.004   6.184   6.099
 1825W        W 2822   1.817   4.992   1.822
 1826W        W 2823   4.865   2.099   6.601
 1827W        W 2824   6.064   3.808   1.584
 1828W        W 2825   5.454   0.482   0.221
 1829W        W 2826   2.298   0.101   5.777
 1830W        W 2827   4.674   1.634   4.049
 1831W        W 2828   4.324   1.275   2.658
 1832W        W 2829   6.648   5.476   3.956
 1833W        W 2830   3.206   0.200   7.426
 1834W        W 2831   3.348   5.392   4.159
 1835W        W 2832   0.250   5.444   2.615
 1836W        W 2833   2.171   3.129   1.158
 1837W        W 2834   0.761   5.834   1.365
 1838W        W 2835   2.897   5.189   1.945
 1839W        W 2836   0.252   6.321   5.505
 1840W        W 2837   0.999   1.575   1.240
 1841W        W 2838   2.669   5.857   0.711
 1842W        W 2839   2.109   6.761   4.220
 1843W        W 2840   1.855   0.008   4.644
 1844W        W 2841   1.275   3.983   5.953
 1845W        W 2842   7.166   7.340   7.073
 1846W        W 2843   4.955   7.670   5.810
 1847W        W 2844   6.068   6.120   1.895
 1848W        W 2845   3.845   4.224   0.864
 1849W        W 2846   3.553   7.069   3.098
 1850W        W 2847   0.902   5.098   5.379
 1851W        W 2848   0.218   5.814   7.459
 1852W        W 2849   3.240   5.366   7.827
 1853W        W 2850   6.828   2.538   2.613
 1854W        W 2851   7.382   1.826   7.628
 1855W        W 2852   7.585   2.101   4.553
 1856W        W 2853   0.652   1.996   3.002
 1857W        W 2854   3.335   7.377   3.873
 1858W        W 2855   6.788   4.567   1.136
 1859W        W 2856   6.986   1.091   7.327
 1860W        W 2857   6.021   2.005   3.662
 1861W        W 2858   7.208   6.114   2.773
 1862W        W 2859   2.496   3.248   1.568
 1863W        W 2860   3.246   3.966   4.592
 1864W        W 2861   5.919   0.474   3.160
 1865W        W 2862   2.226   5.983   3.793
 1866W        W 2863   6.694   0.054   2.632
 1867W        W 2864   4.480   4.619   1.488
 1868W        W 2865   3.568   5.426   3.695
 1869W        W 2866   1.183   2.925   4.479
 1870W        W 2867   5.804   2.326   4.417
 1871W        W 2868   2.377   6.324   2.837
 1872W        W 2869   2.756   1.468   7.538
 1873W        W 2870   2.851   1.354   4.767
 1874W        W 2871   4.930   2.152   0.417
 1875W        W 2872   1.365   5.575   2.878
 1876W        W 2873   5.550   0.934   0.903
 1877W        W 2874   2.230   4.743   2.211
 1878W        W 2875   1.994   3.242   5.618
 1879W        W 2876   7.504   0.718   2.275
 1880W        W 2877   3.090   7.742   7.182
 1881W        W 2878   4.484   4.262   1.770
 1882W        W 2879   2.129   7.321   4.267
 1883W        W 2880   6.337   6.748   3.548
 1884W        W 2881   2.731   3.539   2.157
 1885W        W 2882   4.734   1.451   7.433
 1886W        W 2883   7.606   6.997   3.671
 1887W        W 2884   5.458   7.250   7.553
 1888W        W 2885   5.494   0.598   4.215
 1889W        W 2886   4.716   6.765   3.543
 1890W        W 2887   1.042   4.241   4.080
 1891W        W 2888   7.744   3.892   3.563
 1892W        W 2889   0.779   0.999   0.453
 1893W        W 2890   5.931   6.818   6.623
 1894W        W 2891   1.308   3.509   7.007
 1895W        W 2892   1.279   7.200   7.412
 1896W        W 2893   1.781   2.625   1.639
 1897W        W 2894   2.386   7.083   7.388
 1898W        W 2895   1.947   4.569   5.697
 1899W        W 2896   4.389   6.038   6.102
 1900W        W 2897   1.068   6.386   6.983
 1901W        W 2898   5.890   4.705   6.356
 1902W        W 2899   1.229   0.181   0.542
 1903W        W 2900   1.354   1.459   6.841
 1904W        W 2901   1.082   0.725   7.076
 1905W        W 2902   0.538   5.265   0.141
 1906W        W 2903   6.805   6.437   2.152
 1907W        W 2904   7.790   7.073   6.995
 1908W        W 2905   4.247   6.437   7.319
 1909W        W 2906   2.739   3.922   6.057
 1910W        W 2907   0.376   5.804   6.950
 1911W        W 2908   1.110   3.821   1.276
 1912W        W 2909   1.421   1.628   3.957
 1913W        W 2910   5.507   5.082   5.500
 1914W        W 2911   5.989   6.834   2.167
 1915W        W 2912   6.769   6.851   5.832
 1916W        W 2913   4.480   1.822   4.931
 1917W        W 2914   7.475   1.578   0.488
 1918W        W 2915   3.558   2.223   5.276
 1919W        W 2916   1.537   7.087   1.849
 1920W        W 2917   5.708   1.903   0.037
 1921W        W 2918   5.630   6.787   1.121
 1922W        W 2919   4.373   0.793   0.964
 1923W        W 2920   4.092   1.777   3.399
 1924W        W 2921   0.644   2.928   1.359
 1925W        W 2922   6.453   3.035   7.293
 1926W        W 2923   4.664   1.779   1.867
 1927W        W 2924   6.258   2.288   0.773
 1928W        W 2925   5.886   0.027   5.063
 1929W        W 2926   0.372   2.585   6.091
 1930W        W 2927   7.154   1.682   3.069
 1931W        W 2928   1.520   5.386   2.095
 1932W        W 2929   7.173   7.619   3.381
 1933W        W 2930   7.083   1.412   3.457
 1934W        W 2931   2.583   0.053   0.162
 1935W        W 2932   2.198   3.979   4.941
 1936W        W 2933   7.267   2.039   4.888
 1937W        W 2934   7.338   6.605   1.920
 1938W        W 2935   5.544   1.009   4.693
 1939W        W 2936   1.641   7.805   5.591
 1940W        W 2937   5.860   1.826   3.177
 1941W        W 2938   4.464   2.025   0.416
 1942W        W 2939   6.616   3.000   2.510
 1943W        W 2940   1.498   6.300   7.258
 1944W        W 2941   7.880   4.695   2.447
 1945W        W 2942   1.089   0.951   6.147
 1946W        W 2943   7.939   7.609   1.269
 1947W        W 2944   7.814   6.561   6.840
 1948W        W 2945   3.399   1.465   7.873
 1949W        W 2946   4.192   6.397   4.677
 1950W        W 2947   0.905   2.939   1.780
 1951W        W 2948   6.565   5.266   1.696
 1952W        W 2949   2.230   5.745   7.698
 1953W        W 2950   1.069   1.086   6.610
 1954W        W 2951   7.490   3.705   5.539
 1955W        W 2952   7.928   7.158   1.884
 1956W        W 2953   3.392   6.196   5.279
 1957W        W 2954   6.058   4.792   2.478
 1958W        W 2955   2.781   0.949   5.994
 1959W        W 2956   6.084   7.280   4.401
 1960W        W 2957   6.257   2.546   7.049
 1961W        W 2958   4.510   0.641   0.463
 1962W        W 2959   3.231   4.870   3.951
 1963W        W 2960   2.786   2.278   2.540
 1964W        W 2961   3.359   7.246   2.620
 1965W        W 2962   1.111   5.001   6.637
 1966W        W 2963   1.914   4.505   0.423
 1967W        W 2964   4.808   0.959   5.238
 1968W        W 2965   3.953   4.801   4.660
 1969W        W 2966   3.942   5.517   7.113
 1970W        W 2967   0.980   5.934   6.746
 1971W        W 2968   2.474   4.554   3.569
 1972W        W 2969   4.230   3.791   5.564
 1973W        W 2970   7.683   7.643   1.674
 1974W        W 2971   0.227   0.752   3.516
 1975W        W 2972   2.263   0.605   6.523
 1976W        W 2973   2.121   3.572   5.233
 1977W        W 2974   6.693   0.490   2.870
 1978W        W 2975   2.684   4.019   1.933
 1979W        W 2976   1.815   1.539   3.692
 1980W        W 2977   2.143   5.431   0.147
 1981W        W 2978   6.948   5.099   0.420
 1982W        W 2979   4.020   3.477   7.739
 1983W        W 2980   2.827   0.854   6.900
 1984W        W 2981   4.912   7.167   6.819
 1985W        W 2982   7.252   3.724   3.317
 1986W        W 2983   4.949   4.012   3.649
 1987W        W 2984   0.939   2.608   1.054
 1988W        W 2985   6.930   3.290   1.548
 1989W        W 2986   6.875   2.443   7.941
 1990W        W 2987   2.224   7.372   2.325
 1991W        W 2988   1.354   6.380   3.694
 1992W        W 2989   0.232   0.326   0.117
 1993W        W 2990   7.065   3.438   6.826
 1994W        W 2991   2.483   2.831   2.485
 1995W        W 2992   4.043   3.532   1.679
 1996W        W 2993   7.006   7.441   1.834
 1997W        W 2994   2.497   5.128   0.319
 1998W        W 2995   5.769   2.356   6.202
 1999W        W 2996   4.160   1.781   2.363
 2000W        W 2997   6.145   3.224   7.673
 2001W        W 2998   5.229   1.415   3.787
 2002W        W 2999   7.013   5.180   2.507
 2003W        W 3000   6.393   6.526   5.815
 2004W        W 3001   2.329   1.970   4.965
 2005W        W 3002   1.610   4.718   1.373
 2006W        W 3003   1.421   4.692   0.411
 2007W        W 3004   5.711   2.009   6.919
 2008W        W 3005   0.714   2.734   4.520
 2009W        W 3006   0.895   3.346   2.040
 2010W        W 3007   0.810   3.740   4.701
 2011W        W 3008   3.886   2.596   6.532
 2012W        W 3009   4.173   0.688   4.726
 2013W        W 3010   6.142   3.025   2.139
 2014W        W 3011   0.879   4.754   4.268
 2015W        W 3012   2.978   5.242   6.632
 2016W        W 3013   7.896   6.912   3.206
 2017W        W 3014   5.367   4.123   7.115
 2018W        W 3015   6.887   0.308   4.326
 2019W        W 3016   6.764   7.893   6.301
 2020W        W 3017   2.869   5.454   3.157
 2021W        W 3018   0.456   6.649   3.371
 2022W        W 3019   6.847   7.061   6.775
 2023W        W 3020   6.100   5.880   4.204
 2024W        W 3021   5.428   4.338   6.311
 2025W        W 3022   0.696   2.593   5.201
 2026W        W 3023   3.725   7.776   2.289
 2027W        W 3024   6.052   5.610   7.202
 2028W        W 3025   5.561   2.458   2.033
 2029W        W 3026   0.203   4.385   2.512
 2030W        W 3027   3.345   1.759   6.980
 2031W        W 3028   7.265   3.383   4.131
 2032W        W 3029   0.897   2.437   1.927
 2033W        W 3030   6.744   5.944   5.570
 2034W        W 3031   3.267   7.841   2.957
 2035W        W 3032   5.191   4.403   4.922
 2036W        W 3033   4.155   3.388   0.822
 2037W        W 3034   4.041   0.098   2.881
 2038W        W 3035   5.980   0.222   6.923
 2039W        W 3036   1.931   5.643   1.890
 2040W        W 3037   5.361   5.747   4.392
 2041W        W 3038   5.443   6.904   6.586
 2042W        W 3039   5.150   4.302   1.191
 2043W        W 3040   2.904   0.136   3.613
 2044W        W 3041   7.346   5.819   4.287
 2045W        W 3042   3.982   0.049   1.331
 2046W        W 3043   2.175   4.301   4.528
 2047W        W 3044   4.747   2.482   2.916
 2048W        W 3045   1.969   0.800   7.492
 2049W        W 3046   4.339   5.586   4.381
 2050W        W 3047   5.755   4.057   4.010
 2051W        W 3048   3.614   5.681   6.101
 2052W        W 3049   6.375   0.152   3.029
 2053W        W 3050   6.007   2.726   6.585
 2054W        W 3051   5.124   7.519   0.590
 2055W        W 3052   0.631   2.561   6.552
 2056W        W 3053   2.343   4.822   4.155
 2057W        W 3054   0.904   0.203   6.894
 2058W        W 3055   4.050   4.918   1.443
 2059W        W 3056   1.003   7.335   3.802
 2060W        W 3057   7.680   2.976   3.495
 2061W        W 3058   7.041   7.097   7.540
 2062W        W 3059   0.184   4.545   7.415
 2063W        W 3060   3.354   2.013   1.790
 2064W        W 3061   2.768   0.619   3.835
 2065W        W 3062   2.150   0.807   5.092
 2066W        W 3063   5.449   2.810   6.303
 2067W        W 3064   1.060   6.492   1.365
 2068W        W 3065   5.555   7.621   7.290
 2069W        W 3066   3.691   5.193   2.841
 2070W        W 3067   7.109   0.781   0.947
 2071W        W 3068   7.685   3.752   0.675
 2072W        W 3069   7.342   4.455   4.127
 2073W        W 3070   0.872   0.546   1.706
 2074W        W 3071   7.572   0.771   0.087
 2075W        W 3072   3.516   5.082   0.621
 2076W        W 3073   6.722   6.583   0.658
 2077W        W 3074   1.899   2.264   4.275
 2078W        W 3075   6.558   6.847   0.143
 2079W        W 3076   0.443   7.415   7.157
 2080W        W 3077   1.786   7.842   0.605
 2081W        W 3078   1.247   2.453   5.273
 2082W        W 3079   1.708   0.644   5.006
 2083W        W 3080   2.120   6.678   2.532
 2084W        W 3081   6.799   7.672   5.475
 2085W        W 3082   0.806   3.828   6.025
 2086W        W 3083   7.492   0.128   5.132
 2087W        W 3084   6.704   5.388   4.885
 2088W        W 3085   5.363   1.553   5.650
 2089W        W 3086   5.110   0.027   7.707
 2090W        W 3087   3.310   5.472   0.875
 2091W        W 3088   5.725   3.801   4.419
 2092W        W 3089   4.911   1.143   4.080
 2093W        W 3090   3.717   5.742   5.093
 2094W        W 3091   4.792   2.132   4.068
 2095W        W 3092   7.123   6.255   4.071
 2096W        W 3093   1.492   0.154   5.789
 2097W        W 3094   2.571   4.005   2.386
 2098W        W 3095   1.078   7.080   2.087
 2099W        W 3096   0.613   0.002   0.178
 2100W        W 3097   6.944   3.436   0.304
 2101W        W 3098   6.871   3.910   6.229
 2102W        W 3099   7.835   2.327   2.343
 2103W        W 3100   2.330   4.349   0.738
 2104W        W 3101   4.846   5.551   4.475
 2105W        W 3102   5.207   3.082   6.648
 2106W        W 3103   3.010   2.529   6.167
 2107W        W 3104   1.520   3.293   3.084
 2108W        W 3105   5.039   4.198   2.823
 2109W        W 3106   2.634   6.972   4.249
 2110W        W 3107   7.788   2.970   6.560
 2111W        W 3108   4.629   6.282   1.933
 2112W        W 3109   4.204   0.818   0.112
 2113W        W 3110   4.422   0.979   3.282
 2114W        W 3111   4.621   4.225   5.770
 2115W        W 3112   1.565   6.430   4.329
 2116W        W 3113   0.408   0.875   3.054
 2117W        W 3114   6.818   5.697   1.894
 2118W        W 3115   6.733   6.893   7.191
 2119W        W 3116   1.728   0.347   1.988
 2120W        W 3117   1.136   2.339   1.479
 2121W        W 3118   4.574   7.926   4.492
 2122W        W 3119   6.431   2.981   4.706
 2123W        W 3120   4.453   1.194   1.762
 2124W        W 3121   3.291   6.397   4.633
 2125W        W 3122   6.050   6.236   2.412
 2126W        W 3123   0.318   6.306   3.936
 2127W        W 3124   0.132   4.937   6.495
 2128W        W 3125   1.314   4.224   6.464
 2129W        W 3126   5.599   6.659   2.415
 2130W        W 3127   7.719   2.776   5.212
 2131W        W 3128   6.565   1.234   0.507
 2132W        W 3129   6.858   0.999   4.632
 2133W        W 3130   6.335   5.825   4.635
 2134W        W 3131   4.731   1.141   2.898
 2135W        W 3132   1.793   7.700   4.061
 2136W        W 3133   3.605   6.627   0.859
 2137W        W 3134   7.566   3.554   1.996
 2138W        W 3135   5.144   0.091   0.880
 2139W        W 3136   5.644   4.654   5.854
 2140W        W 3137   6.440   5.876   3.756
 2141W        W 3138   7.360   2.670   0.803
 2142W        W 3139   7.054   1.237   0.668
 2143W        W 3140   3.747   0.504   7.963
 2144W        W 3141   0.305   2.608   4.757
 2145W        W 3142   3.042   6.882   7.897
 2146W        W 3143   4.836   0.914   2.460
 2147W        W 3144   4.485   1.081   3.947
 2148W        W 3145   7.461   0.564   5.467
 2149W        W 3146   1.196   2.100   3.814
 2150W        W 3147   2.814   2.144   1.301
 2151W        W 3148   7.560   2.897   0.353
 2152W        W 3149   4.010   0.363   7.172
 2153W        W 3150   6.451   7.251   5.908
 2154W        W 3151   4.643   2.299   1.643
 2155W        W 3152   5.734   6.775   3.586
 2156W        W 3153   3.903   3.805   0.033
 2157W        W 3154   1.245   1.892   7.627
 2158W        W 3155   6.143   5.036   1.992
 2159W        W 3156   1.369   0.912   4.711
 2160W        W 3157   0.136   7.306   4.068
 2161W        W 3158   7.712   2.916   1.059
 2162W        W 3159   6.502   4.965   6.060
 2163W        W 3160   1.917   1.758   4.161
 2164W        W 3161   4.830   5.991   4.145
 2165W        W 3162   6.005   5.173   6.258
 2166W        W 3163   2.016   3.438   6.221
 2167W        W 3164   6.619   6.289   4.656
 2168W        W 3165   6.605   0.380   5.674
 2169W        W 3166   1.946   6.233   2.305
 2170W        W 3167   6.194   2.331   4.114
 2171W        W 3168   3.094   5.030   7.484
 2172W        W 3169   1.483   2.462   2.911
 2173W        W 3170   7.127   5.552   6.250
 2174W        W 3171   6.832   3.459   3.281
 2175W        W 3172   7.644   1.662   4.360
 2176W        W 3173   2.259   4.979   2.707
 2177W        W 3174   1.927   5.742   3.512
 2178W        W 3175   6.951   5.347   4.430
 2179W        W 3176   4.809   7.388   6.248
 2180W        W 3177   2.419   6.193   7.567
 2181W        W 3178   1.471   1.984   5.645
 2182W        W 3179   6.239   7.153   2.653
 2183W        W 3180   6.896   5.240   6.613
 2184W        W 3181   0.248   6.419   4.520
 2185W        W 3182   5.987   6.706   4.450
 2186W        W 3183   1.709   3.452   2.051
 2187W        W 3184   5.027   6.128   3.666
 2188W        W 3185   1.676   0.131   1.333
 2189W        W 3186   1.542   2.613   4.929
 2190W        W 3187   6.478   7.410   2.230
 2191W        W 3188   2.854   6.739   5.971
 2192W        W 3189   4.171   7.735   0.390
 2193W        W 3190   3.951   3.773   3.846
 2194W        W 3191   3.476   6.216   6.247
 2195W        W 3192   4.144   1.086   0.563
 2196W        W 3193   4.231   3.468   6.724
 2197W        W 3194   7.483   5.725   2.533
 2198W        W 3195   4.136   3.286   2.536
 2199W        W 3196   4.059   6.338   7.776
 2200W        W 3197   6.695   3.304   5.453
 2201W        W 3198   5.764   7.248   1.329
 2202W        W 3199   4.039   0.591   4.170
 2203W        W 3200   2.926   2.115   7.123
 2204W        W 3201   2.477   6.826   2.954
 2205W        W 3202   5.555   3.660   3.024
 2206W        W 3203   2.376   4.450   5.033
 2207W        W 3204   2.247   4.159   6.946
 2208W        W 3205   5.390   3.030   1.382
 2209W        W 3206   6.106   2.278   6.644
 2210W        W 3207   2.685   5.626   4.663
 2211W        W 3208   4.984   1.447   5.905
 2212W        W 3209   5.739   3.897   4.912
 2213W        W 3210   4.997   3.088   4.195
 2214W        W 3211   1.099   2.567   4.093
 2215W        W 3212   1.967   3.293   3.298
 2216W        W 3213   1.714   3.865   5.086
 2217W        W 3214   5.037   5.659   3.284
 2218W        W 3215   7.133   3.427   5.196
 2219W        W 3216   3.815   5.509   3.243
 2220W        W 3217   1.780   2.873   2.126
 2221W        W 3218   3.029   1.021   7.718
 2222W        W 3219   6.670   6.111   7.621
 2223W        W 3220   0.292   7.669   4.888
 2224W        W 3221   7.219   4.737   3.237
 2225W        W 3222   7.135   7.534   6.400
 2226W        W 3223   4.574   3.697   5.924
 2227W        W 3224   2.107   2.008   0.655
 2228W        W 3225   6.875   3.095   0.971
 2229W        W 3226   5.652   6.236   1.100
 2230W        W 3227   3.255   7.550   6.398
 2231W        W 3228   3.218   6.107   1.907
 2232W        W 3229   6.686   6.003   4.203
 2233W        W 3230   1.544   0.199   5.038
 2234W        W 3231   2.841   6.672   1.246
 2235W        W 3232   1.278   3.882   4.863
 2236W        W 3233   6.966   4.513   7.226
 2237W        W 3234   5.764   7.175   5.399
 2238W        W 3235   3.341   5.430   3.134
 2239W        W 3236   1.903   2.693   0.976
 2240W        W 3237   5.820   0.175   0.058
 2241W        W 3238   0.478   6.759   5.044
 2242W        W 3239   5.564   5.823   5.305
 2243W        W 3240   4.043   5.097   0.883
 2244W        W 3241   5.586   1.293   3.450
 2245W        W 3242   2.518   0.477   4.889
 2246W        W 3243   3.209   1.862   4.540
 2247W        W 3244   1.488   5.189   6.388
 2248W        W 3245   1.044   1.307   4.171
 2249W        W 3246   3.809   7.745   2.842
 2250W        W 3247   6.523   5.783   7.263
 2251W        W 3248   7.441   5.738   4.790
 2252W        W 3249   3.101   5.711   1.584
 2253W        W 3250   3.629   3.848   0.435
 2254W        W 3251   5.246   2.146   3.864
 2255W        W 3252   0.525   2.920   5.693
 2256W        W 3253   4.198   2.082   1.728
 2257W        W 3254   2.406   5.881   1.700
 2258W        W 3255   4.833   2.440   3.589
 2259W        W 3256   3.858   0.726   2.009
 2260W        W 3257   2.208   0.347   1.461
 2261W        W 3258   5.854   4.893   3.268
 2262W        W 3259   1.214   5.196   5.003
 2263W        W 3260   2.459   0.814   2.590
 2264W        W 3261   6.746   2.628   6.981
 2265W        W 3262   7.754   1.383   6.869
 2266W        W 3263   4.835   6.475   6.102
 2267W        W 3264   2.079   7.093   2.774
 2268W        W 3265   6.668   1.202   5.647
 2269W        W 3266   5.373   4.605   5.382
 2270W        W 3267   2.251   4.376   7.539
 2271W        W 3268   4.640   3.769   4.008
 2272W        W 3269   6.456   1.651   3.801
 2273W        W 3270   6.677   7.587   0.570
 2274W        W 3271   4.944   2.586   4.064
 2275W        W 3272   4.989   1.796   3.641
 2276W        W 3273   5.051   0.339   4.028
 2277W        W 3274   3.642   3.473   2.554
 2278W        W 3275   3.650   0.017   5.881
 2279W        W 3276   1.544   5.166   0.676
 2280W        W 3277   4.218   7.699   3.800
 2281W        W 3278   0.378   6.253   4.988
 2282W        W 3279   7.775   6.169   2.697
 2283W        W 3280   6.416   1.033   4.864
 2284W        W 3281   6.368   3.887   6.190
 2285W        W 3282   1.510   2.028   4.292
 2286W        W 3283   0.429   1.961   2.520
 2287W        W 3284   4.657   2.781   7.385
 2288W        W 3285   1.677   1.401   4.370
 2289W        W 3286   2.210   7.171   6.605
 2290W        W 3287   2.523   4.450   1.529
 2291W        W 3288   7.815   3.313   6.166
 2292W        W 3289   6.936   1.818   5.127
 2293W        W 3290   6.375   5.073   3.197
 2294W        W 3291   0.129   3.465   3.483
 2295W        W 3292   7.636   6.668   2.387
 2296W        W 3293   6.046   2.979   1.639
 2297W        W 3294   2.842   3.989   1.144
 2298W        W 3295   1.386   7.552   7.050
 2299W        W 3296   3.419   3.750   6.563
 2300W        W 3297   2.886   6.345   3.040
 2301W        W 3298   2.489   5.551   3.482
 2302W        W 3299   6.005   6.215   4.596
 2303W        W 3300   7.345   7.023   2.639
 2304W        W 3301   1.671   1.758   0.733
 2305W        W 3302   0.728   5.926   4.751
 2306W        W 3303   7.587   2.137   1.851
 2307W        W 3304   1.426   4.453   7.332
 2308W        W 3305   1.582   1.811   6.262
 2309W        W 3306   7.780   3.028   2.000
 2310W        W 3307   5.125   4.773   4.623
 2311W        W 3308   5.635   0.753   5.704
 2312W        W 3309   6.228   5.542   5.016
 2313W        W 3310   2.889   1.781   2.951
 2314W        W 3311   6.794   5.913   0.044
 2315W        W 3312   3.796   7.309   6.534
 2316W        W 3313   3.983   2.134   7.231
 2317W        W 3314   3.016   0.458   6.063
 2318W        W 3315   4.167   2.570   2.006
 2319W        W 3316   7.516   3.142   2.407
 2320W        W 3317   6.396   3.310   4.315
 2321W        W 3318   4.122   0.905   3.715
 2322W        W 3319   6.085   6.156   1.349
 2323W        W 3320   3.280   5.508   2.105
 2324W        W 3321   6.948   5.027   1.369
 2325W        W 3322   1.845   4.741   3.263
 2326W        W 3323   7.701   6.138   2.143
 2327W        W 3324   5.475   5.899   7.382
 2328W        W 3325   1.669   4.319   6.824
 2329W        W 3326   3.161   6.835   0.380
 2330W        W 3327   4.757   3.484   4.378
 2331W        W 3328   0.737   3.278   4.419
 2332W        W 3329   2.713   1.525   3.347
 2333W        W 3330   6.111   6.953   5.798
 2334W        W 3331   4.017   1.925   0.666
 2335W        W 3332   2.654   5.614   5.578
 2336W        W 3333   0.277   2.676   4.247
 2337W        W 3334   0.895   0.387   2.244
 2338W        W 3335   1.253   7.497   6.562
 2339W        W 3336   2.128   1.851   0.100
 2340W        W 3337   1.473   0.910   7.377
 2341W        W 3338   7.246   2.710   7.094
 2342W        W 3339   0.382   2.418   2.772
 2343W        W 3340   6.748   0.224   3.354
 2344W        W 3341   7.149   4.594   1.848
 2345W        W 3342   7.420   6.188   3.252
 2346W        W 3343   2.365   4.870   1.741
 2347W        W 3344   2.344   5.361   3.023
 2348W        W 3345   4.668   2.637   5.943
 2349W        W 3346   5.416   0.299   1.415
 2350W        W 3347   6.664   1.625   4.260
 2351W        W 3348   6.093   2.588   7.528
 2352W        W 3349   0.735   2.176   3.923
 2353W        W 3350   2.472   4.007   7.906
 2354W        W 3351   0.124   0.319   5.971
 2355W        W 3352   3.785   5.977   1.942
 2356W        W 3353   6.416   1.162   0.953
 2357W        W 3354   0.616   5.456   4.477
 2358W        W 3355   4.770   0.497   1.006
 2359W        W 3356   6.089   6.457   7.037
 2360W        W 3357   4.948   4.407   4.291
 2361W        W 3358   4.021   0.525   1.183
 2362W        W 3359   6.944   0.792   2.590
 2363W        W 3360   0.982   5.379   3.104
 2364W        W 3361   7.388   7.790   0.654
 2365W        W 3362   5.809   3.002   6.001
 2366W        W 3363   1.058   6.603   5.652
 2367W        W 3364   5.939   0.068   0.571
 2368W        W 3365   1.422   7.697   1.736
 2369W        W 3366   2.339   1.238   5.069
 2370W        W 3367   2.571   6.662   5.562
 2371W        W 3368   1.515   5.928   3.133
 2372W        W 3369   0.562   5.079   2.993
 2373W        W 3370   0.048   2.331   1.604
 2374W        W 3371   5.876   3.898   5.409
 2375W        W 3372   1.970   3.726   1.046
 2376W        W 3373   6.328   3.468   2.389
 2377W        W 3374   7.739   4.039   4.773
 2378W        W 3375   3.318   0.495   0.563
 2379W        W 3376   4.597   5.111   0.743
 2380W        W 3377   1.876   1.648   5.698
 2381W        W 3378   6.973   7.115   6.179
 2382W        W 3379   3.531   5.749   1.316
 2383W        W 3380   5.920   3.782   2.504
 2384W        W 3381   4.475   6.827   5.437
 2385W        W 3382   1.503   1.777   7.208
 2386W        W 3383   6.714   0.337   0.696
 2387W        W 3384   3.046   5.043   3.254
 2388W        W 3385   3.563   3.407   1.516
 2389W        W 3386   0.611   1.831   6.543
 2390W        W 3387   1.723   7.499   2.662
 2391W        W 3388   5.693   3.337   6.945
 2392W        W 3389   1.849   1.647   2.752
 2393W        W 3390   0.535   3.169   6.935
 2394W        W 3391   4.471   3.153   5.026
 2395W        W 3392   1.766   0.051   7.825
 2396W        W 3393   2.558   7.414   1.910
 2397W        W 3394   0.105   3.608   2.334
 2398W        W 3395   0.006   4.725   1.240
 2399W        W 3396   5.667   1.540   7.806
 2400W        W 3397   5.573   7.132   2.179
 2401W        W 3398   3.560   7.734   1.169
 2402W        W 3399   7.490   5.391   5.845
 2403W        W 3400   2.977   3.056   5.062
 2404W        W 3401   0.345   7.358   4.519
 2405W        W 3402   4.143   5.910   4.855
 2406W        W 3403   7.418   0.932   6.603
 2407W        W 3404   6.976   0.385   5.312
 2408W        W 3405   7.733   5.711   0.834
 2409W        W 3406   2.811   0.996   3.451
 2410W        W 3407   1.947   3.795   2.443
 2411W        W 3408   0.812   1.661   2.568
 2412W        W 3409   4.363   5.885   3.957
 2413W        W 3410   3.529   3.205   7.190
 2414W        W 3411   4.083   5.937   0.694
 2415W        W 3412   5.164   0.648   5.404
 2416W        W 3413   4.376   6.682   0.408
 2417W        W 3414   1.649   6.723   0.546
 2418W        W 3415   3.604   2.147   6.891
 2419W        W 3416   0.497   7.269   5.866
 2420W        W 3417   4.168   1.601   1.884
 2421W        W 3418   1.307   0.519   7.608
 2422W        W 3419   3.632   4.877   5.559
 2423W        W 3420   6.402   2.012   1.215
 2424W        W 3421   6.800   6.619   4.339
 2425W        W 3422   5.255   0.737   2.779
 2426W        W 3423   1.573   6.450   1.006
 2427W        W 3424   2.864   7.593   2.671
 2428W        W 3425   2.968   3.367   1.743
 2429W        W 3426   5.937   4.965   0.338
 2430W        W 3427   0.337   0.353   1.144
 2431W        W 3428   0.361   1.744   7.038
 2432W        W 3429   5.133   6.178   1.843
 2433W        W 3430   5.234   1.069   5.671
 2434W        W 3431   4.977   0.911   0.710
 2435W        W 3432   6.980   4.215   0.385
 2436W        W 3433   6.265   4.616   0.497
 2437W        W 3434   0.693   2.947   6.170
 2438W        W 3435   0.556   1.485   3.769
 2439W        W 3436   5.365   5.581   1.020
 2440W        W 3437   5.735   7.279   4.881
 2441W        W 3438   0.565   5.424   2.066
 2442W        W 3439   0.652   7.721   6.337
 2443W        W 3440   6.424   0.415   7.258
 2444W        W 3441   2.970   3.943   0.026
 2445W        W 3442   1.914   5.865   0.026
 2446W        W 3443   7.019   2.481   5.075
 2447W        W 3444   1.423   7.909   2.635
 2448W        W 3445   5.348   3.596   5.300
 2449W        W 3446   2.742   3.623   7.659
 2450W        W 3447   2.320   0.459   7.355
 2451W        W 3448   7.126   4.794   0.006
 2452W        W 3449   2.188   4.181   5.445
 2453W        W 3450   4.994   5.218   1.131
 2454W        W 3451   2.401   7.662   2.614
 2455W        W 3452   2.248   3.767   3.332
 2456W        W 3453   2.496   0.292   6.236
 2457W        W 3454   2.027   6.950   7.004
 2458W        W 3455   5.732   7.474   3.623
 2459W        W 3456   7.351   5.460   0.594
 2460W        W 3457   4.112   5.575   5.922
 2461W        W 3458   6.792   3.656   4.180
 2462W        W 3459   4.207   2.737   1.044
 2463W        W 3460   3.397   7.189   6.759
 2464W        W 3461   2.364   0.408   5.367
 2465W        W 3462   1.558   7.899   6.714
 2466W        W 3463   4.589   4.633   0.505
 2467W        W 3464   6.606   0.809   6.475
 2468W        W 3465   3.922   1.346   3.645
 2469W        W 3466   7.095   3.638   1.883
 2470W        W 3467   3.593   1.170   1.919
 2471W        W 3468   1.702   3.344   5.098
 2472W        W 3469   5.229   7.800   4.676
 2473W        W 3470   3.425   4.146   7.431
 2474W        W 3471   4.607   1.358   4.465
 2475W        W 3472   4.005   6.727   5.289
 2476W        W 3473   6.422   1.648   5.957
 2477W        W 3474   0.075   6.754   4.087
 2478W        W 3475   5.718   2.274   3.918
 2479W        W 3476   1.393   2.884   0.928
 2480W        W 3477   3.058   2.220   2.966
 2481W        W 3478   0.782   4.666   5.703
 2482W        W 3479   5.589   7.199   3.195
 2483W        W 3480   5.912   6.695   5.431
 2484W        W 3481   6.210   6.125   0.825
 2485W        W 3482   4.046   4.061   1.727
 2486W        W 3483   5.753   5.306   4.319
 2487W        W 3484   0.234   1.455   4.714
 2488W        W 3485   5.437   7.804   5.547
 2489W        W 3486   7.499   0.765   1.802
 2490W        W 3487   2.671   1.025   0.761
 2491W        W 3488   1.379   4.820   5.301
 2492W        W 3489   0.570   7.420   0.092
 2493W        W 3490   7.607   1.091   5.214
 2494W        W 3491   5.702   2.681   2.897
 2495W        W 3492   5.216   4.017   4.122
 2496W        W 3493   0.181   7.594   3.207
 2497W        W 3494   0.159   5.154   6.984
 2498W        W 3495   1.156   7.763   4.077
 2499W        W 3496   2.675   1.722   1.055
 2500W        W 3497   6.451   5.179   0.423
 2501W        W 3498   1.880   6.525   1.425
 2502W        W 3499   0.325   7.020   6.262
 2503W        W 3500   4.205   2.435   0.133
 2504W        W 3501   1.880   3.799   7.031
 2505W        W 3502   1.731   4.155   1.392
 2506W        W 3503   6.251   4.524   3.358
 2507W        W 3504   2.871   3.415   5.350
 2508W        W 3505   0.198   5.841   5.600
 2509W        W 3506   6.189   2.807   3.303
 2510W        W 3507   2.589   2.262   0.769
 2511W        W 3508   0.083   7.937   2.788
 2512W        W 3509   7.312   3.500   2.806
 2513W        W 3510   2.446   2.640   0.448
 2514W        W 3511   0.281   1.747   3.311
 2515W        W 3512   5.383   6.156   3.094
 2516W        W 3513   3.305   6.341   6.872
 2517W        W 3514   5.276   7.496   3.361
 2518W        W 3515   3.836   4.279   7.706
 2519W        W 3516   2.683   4.563   2.004
 2520W        W 3517   6.428   5.386   6.414
 2521W        W 3518   4.167   6.508   5.791
 2522W        W 3519   2.758   4.150   3.712
 2523W        W 3520   0.785   0.665   6.697
 2524W        W 3521   3.474   1.128   1.159
 2525W        W 3522   1.960   1.695   1.705
 2526W        W 3523   7.498   5.787   5.313
 2527W        W 3524   6.566   6.957   1.403
 2528W        W 3525   5.279   4.300   5.811
 2529W        W 3526   3.566   6.301   0.415
 2530W        W 3527   5.530   4.333   4.443
 2531W        W 3528   1.692   2.810   0.502
 2532W        W 3529   3.939   6.346   6.518
 2533W        W 3530   5.311   5.943   1.339
 2534W        W 3531   4.580   5.062   2.598
 2535W        W 3532   4.269   3.752   4.336
 2536W        W 3533   2.388   1.718   5.486
 2537W        W 3534   4.038   4.363   2.595
 2538W        W 3535   1.036   2.117   4.309
 2539W        W 3536   1.007   4.147   7.490
 2540W        W 3537   2.507   5.349   1.600
 2541W        W 3538   5.623   3.214   3.584
 2542W        W 3539   4.043   7.312   6.964
 2543W        W 3540   4.386   1.266   6.179
 2544W        W 3541   6.120   0.530   5.931
 2545W        W 3542   2.690   0.122   7.272
 2546W        W 3543   5.972   0.220   7.443
 2547W        W 3544   7.751   4.845   6.838
 2548W        W 3545   0.706   3.205   5.310
 2549W        W 3546   3.636   5.054   7.798
 2550W        W 3547   1.063   1.896   1.708
 2551W        W 3548   2.323   3.788   5.739
 2552W        W 3549   3.314   3.757   3.485
 2553W        W 3550   3.992   2.676   3.703
 2554W        W 3551   7.847   6.382   4.938
 2555W        W 3552   6.192   1.503   5.375
 2556W        W 3553   7.272   5.695   3.401
 2557W        W 3554   1.751   3.885   6.434
 2558W        W 3555   1.524   2.580   4.421
 2559W        W 3556   6.971   1.765   6.738
 2560W        W 3557   3.514   5.623   2.727
 2561W        W 3558   5.407   0.866   7.115
 2562W        W 3559   7.586   2.940   2.819
 2563W        W 3560   2.941   3.943   5.629
 2564W        W 3561   6.937   2.368   2.131
 2565W        W 3562   5.544   1.766   3.837
 2566W        W 3563   1.123   7.188   4.267
 2567W        W 3564   2.894   2.756   0.642
 2568W        W 3565   4.837   1.539   3.198
 2569W        W 3566   6.963   6.473   7.093
 2570W        W 3567   2.811   7.005   5.059
 2571W        W 3568   0.876   7.198   7.053
 2572W        W 3569   5.157   6.276   1.024
 2573W        W 3570   6.893   5.071   5.193
 2574W        W 3571   5.243   7.000   3.580
 2575W        W 3572   7.417   4.170   5.291
 2576W        W 3573   3.974   5.042   3.227
 2577W        W 3574   6.913   4.042   7.070
 2578W        W 3575   7.155   6.183   7.506
 2579W        W 3576   6.335   5.809   0.360
 2580W        W 3577   4.672   6.359   0.959
 2581W        W 3578   4.944   0.346   4.545
 2582W        W 3579   1.000   5.871   6.157
 2583W        W 3580   3.535   5.832   7.183
 2584W        W 3581   4.285   1.510   0.373
 2585W        W 3582   6.059   7.050   0.013
 2586W        W 3583   2.436   1.738   1.533
 2587W        W 3584   0.779   4.868   6.282
 2588W        W 3585   3.260   4.584   3.289
 2589W        W 3586   0.387   3.370   7.539
 2590W        W 3587   1.338   5.068   4.095
 2591W        W 3588   4.436   4.952   4.700
 2592W        W 3589   5.545   2.630   5.819
 2593W        W 3590   1.404   2.020   2.185
 2594W        W 3591   5.132   2.349   6.064
 2595W        W 3592   0.081   4.084   7.220
 2596W        W 3593   2.168   1.323   7.575
 2597W        W 3594   1.284   0.581   5.247
 2598W        W 3595   1.451   5.430   3.326
 2599W        W 3596   1.892   7.075   6.058
 2600W        W 3597   3.305   6.248   3.908
 2601W        W 3598   7.404   4.451   6.934
 2602W        W 3599   2.539   1.081   3.998
 2603W        W 3600   2.725   4.810   0.696
 2604W        W 3601   7.445   5.691   7.374
 2605W        W 3602   1.779   5.837   7.500
 2606W        W 3603   5.602   1.385   0.253
 2607W        W 3604   5.429   3.434   7.437
 2608W        W 3605   4.773   4.473   2.067
 2609W        W 3606   6.054   0.955   2.444
 2610W        W 3607   0.097   5.353   7.504
 2611W        W 3608   6.928   6.967   5.344
 2612W        W 3609   1.612   1.833   0.224
 2613W        W 3610   3.662   7.024   7.143
 2614W        W 3611   1.880   7.500   6.780
 2615W        W 3612   1.968   1.488   6.143
 2616W        W 3613   3.397   2.205   7.298
 2617W        W 3614   6.586   7.082   1.879
 2618W        W 3615   4.848   0.703   3.729
 2619W        W 3616   3.136   6.729   2.686
 2620W        W 3617   2.348   4.055   1.148
 2621W        W 3618   1.020   6.960   7.857
 2622W        W 3619   0.843   4.232   3.082
 2623W        W 3620   0.961   3.154   7.178
 2624W        W 3621   0.508   2.250   4.451
 2625W        W 3622   6.508   3.033   1.689
 2626W        W 3623   5.181   0.446   6.438
 2627W        W 3624   4.795   2.756   5.034
 2628W        W 3625   3.099   7.176   5.902
 2629W        W 3626   5.938   5.882   3.728
 2630W        W 3627   3.253   7.249   7.232
 2631W        W 3628   3.636   7.107   4.286
 2632W        W 3629   2.627   2.178   0.225
 2633W        W 3630   1.843   3.847   5.953
 2634W        W 3631   1.382   2.455   5.771
 2635W        W 3632   5.668   0.645   2.311
 2636W        W 3633   7.350   7.728   2.054
 2637W        W 3634   1.239   2.793   6.385
 2638W        W 3635   4.636   2.873   3.803
 2639W        W 3636   6.603   2.841   0.006
 2640W        W 3637   0.430   5.011   7.394
 2641W        W 3638   0.116   2.283   0.522
 2642W        W 3639   0.863   5.963   2.829
 2643W        W 3640   7.716   4.485   2.925
 2644W        W 3641   6.099   2.473   1.796
 2645W        W 3642   5.202   0.037   2.373
 2646W        W 3643   7.401   2.665   2.003
 2647W        W 3644   4.008   3.318   0.342
 2648W        W 3645   0.901   0.212   2.792
 2649W        W 3646   3.132   4.363   5.842
 2650W        W 3647   0.499   4.755   1.322
 2651W        W 3648   5.062   5.024   3.872
 2652W        W 3649   4.134   6.265   2.040
 2653W        W 3650   4.965   1.280   1.954
 2654W        W 3651   3.070   7.349   3.021
 2655W        W 3652   0.969   1.205   2.800
 2656W        W 3653   0.752   5.058   0.935
 2657W        W 3654   3.207   2.276   4.889
 2658W        W 3655   4.385   6.437   5.180
 2659W        W 3656   7.356   5.329   4.073
 2660W        W 3657   4.171   6.358   1.576
 2661W        W 3658   4.412   1.606   7.945
 2662W        W 3659   3.461   1.513   3.831
 2663W        W 3660   4.391   5.286   2.990
 2664W        W 3661   0.189   2.819   5.303
 2665W        W 3662   2.350   6.068   4.704
 2666W        W 3663   4.935   0.979   7.392
 2667W        W 3664   1.185   6.849   3.728
 2668W        W 3665   4.809   7.666   4.916
 2669W        W 3666   1.055   2.595   4.830
 2670W        W 3667   1.461   1.022   3.999
 2671W        W 3668   2.762   6.512   1.723
 2672W        W 3669   1.038   2.119   2.606
 2673W        W 3670   4.810   3.757   3.169
 2674W        W 3671   4.510   6.921   4.274
 2675W        W 3672   2.196   0.491   2.292
 2676W        W 3673   3.878   4.063   2.239
 2677W        W 3674   4.292   3.186   5.500
 2678W        W 3675   6.480   6.745   3.036
 2679W        W 3676   6.777   7.642   3.739
 2680W        W 3677   7.490   3.208   7.014
 2681W        W 3678   5.611   6.297   3.644
 2682W        W 3679   4.681   5.141   7.481
 2683W        W 3680   6.710   6.103   0.598
 2684W        W 3681   1.903   0.933   3.265
 2685W        W 3682   6.676   2.153   7.067
 2686W        W 3683   2.197   2.656   1.953
 2687W        W 3684   6.139   4.093   3.673
 2688W        W 3685   7.397   1.834   5.380
 2689W        W 3686   5.399   2.034   2.209
 2690W        W 3687   0.097   1.645   2.686
 2691W        W 3688   1.755   2.388   2.059
 2692W        W 3689   7.627   5.361   6.743
 2693W        W 3690   6.924   3.067   7.126
 2694W        W 3691   7.252   4.129   4.787
 2695W        W 3692   6.126   7.167   3.521
 2696W        W 3693   3.113   4.473   1.188
 2697W        W 3694   1.579   4.825   6.908
 2698W        W 3695   1.892   1.084   4.711
 2699W        W 3696   2.588   6.705   3.512
 2700W        W 3697   4.226   4.744   6.801
 2701W        W 3698   6.264   4.465   6.034
 2702W        W 3699   6.873   1.063   0.166
 2703W        W 3700   7.156   1.072   1.734
 2704W        W 3701   5.913   3.291   4.130
 2705W        W 3702   0.900   0.799   4.854
 2706W        W 3703   4.921   4.007   5.106
 2707W        W 3704   0.275   5.333   4.146
 2708W        W 3705   1.994   4.544   1.703
 2709W        W 3706   2.027   1.735   7.303
 2710W        W 3707   6.999   5.985   7.067
 2711W        W 3708   1.845   6.662   7.885
 2712W        W 3709   1.938   6.318   0.345
 2713W        W 3710   3.143   5.886   6.904
 2714W        W 3711   3.971   3.809   6.387
 2715W        W 3712   6.866   6.457   0.176
 2716W        W 3713   5.227   6.506   2.741
 2717W        W 3714   7.761   5.808   5.718
 2718W        W 3715   2.470   7.346   3.011
 2719W        W 3716   2.774   0.661   1.141
 2720W        W 3717   1.544   1.318   6.401
 2721W        W 3718   5.895   2.844   5.518
 2722W        W 3719   4.647   1.710   2.690
 2723W        W 3720   1.334   1.755   3.481
 2724W        W 3721   6.828   7.374   1.374
 2725W        W 3722   5.015   4.413   1.647
 2726W        W 3723   4.227   7.814   2.319
 2727W        W 3724   3.500   6.059   0.857
 2728W        W 3725   0.531   2.883   2.695
 2729W        W 3726   3.112   5.929   0.543
 2730W        W 3727   6.688   4.732   0.235
 2731W        W 3728   3.198   1.667   5.606
 2732W        W 3729   1.257   7.387   3.048
 2733W        W 3730   0.682   6.778   0.893
 2734W        W 3731   4.266   1.732   7.505
 2735W        W 3732   3.093   5.717   6.377
 2736W        W 3733   1.941   2.051   5.285
 2737W        W 3734   2.812   0.644   6.459
 2738W        W 3735   3.022   2.365   1.678
 2739W        W 3736   3.384   0.432   5.697
 2740W        W 3737   0.300   2.243   2.072
 2741W        W 3738   5.241   7.376   6.419
 2742W        W 3739   7.014   4.872   5.627
 2743W        W 3740   7.304   7.566   5.508
 2744W        W 3741   5.210   6.529   3.447
 2745W        W 3742   4.221   4.088   4.778
 2746W        W 3743   5.496   6.863   5.721
 2747W        W 3744   1.265   6.610   6.551
 2748W        W 3745   2.670   1.308   1.681
 2749W        W 3746   2.553   2.281   1.779
 2750W        W 3747   7.995   4.407   0.012
 2751W        W 3748   4.557   6.856   5.957
 2752W        W 3749   5.467   4.236   1.979
 2753W        W 3750   3.857   5.043   7.024
 2754W        W 3751   2.349   3.674   6.796
 2755W        W 3752   7.588   6.424   3.991
 2756W        W 3753   1.312   3.725   6.570
 2757W        W 3754   3.829   3.872   5.880
 2758W        W 3755   3.929   1.036   1.031
 2759W        W 3756   0.733   4.972   4.744
 2760W        W 3757   6.109   1.360   2.777
 2761W        W 3758   5.725   5.373   5.069
 2762W        W 3759   4.303   6.481   6.838
 2763W        W 3760   4.388   3.358   3.107
 2764W        W 3761   1.171   3.364   5.533
 2765W        W 3762   7.431   1.347   7.389
 2766W        W 3763   2.386   1.780   2.018
 2767W        W 3764   3.438   0.478   6.425
 2768W        W 3765   2.782   3.308   4.014
 2769W        W 3766   3.462   4.041   7.919
 2770W        W 3767   6.228   2.505   5.386
 2771W        W 3768   3.890   6.814   6.146
 2772W        W 3769   5.211   7.900   6.282
 2773W        W 3770   4.003   5.369   0.467
 2774W        W 3771   4.037   6.694   4.344
 2775W        W 3772   3.452   6.677   6.000
 2776W        W 3773   5.394   3.290   6.177
 2777W        W 3774   7.941   6.055   5.316
 2778W        W 3775   4.791   4.159   7.194
 2779W        W 3776   5.113   3.858   7.496
 2780W        W 3777   5.332   0.055   0.376
 2781W        W 3778   4.658   5.974   0.586
 2782W        W 3779   6.705   0.463   6.850
 2783W        W 3780   7.997   0.619   5.394
 2784W        W 3781   0.723   0.353   7.704
 2785W        W 3782   6.503   0.341   6.225
 2786W        W 3783   3.811   7.291   6.022
 2787W        W 3784   6.703   6.035   2.894
 2788W        W 3785   5.022   0.460   7.970
 2789W        W 3786   3.435   4.136   1.398
 2790W        W 3787   3.846   3.499   2.137
 2791W        W 3788   3.785   3.769   4.648
 2792W        W 3789   5.190   1.025   7.842
 2793W        W 3790   1.686   3.701   0.635
 2794W        W 3791   5.675   0.338   0.975
 2795W        W 3792   5.453   2.644   4.223
 2796W        W 3793   3.707   1.731   7.446
 2797W        W 3794   4.641   0.832   4.653
 2798W        W 3795   5.799   1.516   6.729
 2799W        W 3796   2.385   2.815   7.083
 2800W        W 3797   1.796   7.496   0.951
 2801W        W 3798   5.885   2.144   1.156
 2802W        W 3799   7.584   6.276   1.574
 2803W        W 3800   2.254   3.860   6.311
 2804W        W 3801   6.126   0.209   3.525
 2805W        W 3802   5.687   3.382   2.159
 2806W        W 3803   4.016   6.331   0.237
 2807W        W 3804   5.477   1.529   4.653
 2808W        W 3805   4.336   7.618   4.809
 2809W        W 3806   3.910   0.086   4.446
 2810W        W 3807   6.373   4.905   7.174
 2811W        W 3808   1.493   0.848   2.986
 2812W        W 3809   2.774   5.314   6.002
 2813W        W 3810   7.739   7.456   0.833
 2814W        W 3811   0.761   0.940   5.366
 2815W        W 3812   0.982   3.436   3.674
 2816W        W 3813   6.432   6.538   1.062
 2817W        W 3814   0.220   1.001   5.359
 2818W        W 3815   2.667   6.644   2.569
 2819W        W 3816   4.850   1.182   3.539
 2820W        W 3817   3.463   1.956   2.433
 2821W        W 3818   4.635   5.937   0.069
 2822W        W 3819   7.152   6.783   3.943
 2823W        W 3820   2.636   7.239   3.517
 2824W        W 3821   5.943   0.509   3.955
 2825W        W 3822   0.722   6.187   4.321
 2826W        W 3823   7.444   6.524   6.521
 2827W        W 3824   2.121   2.068   2.654
 2828W        W 3825   2.512   7.486   5.134
 2829W        W 3826   0.387   2.810   1.919
 2830W        W 3827   7.310   4.114   7.364
 2831W        W 3828   5.206   1.422   7.569
 2832W        W 3829   6.324   0.187   4.276
 2833W        W 3830   1.866   7.262   3.833
 2834W        W 3831   6.491   6.887   2.316
 2835W        W 3832   7.849   5.118   0.833
 2836W        W 3833   2.445   7.618   5.628
 2837W        W 3834   6.852   3.196   4.480
 2838W        W 3835   6.506   5.397   6.891
 2839W        W 3836   7.929   3.969   3.127
 2840W        W 3837   6.516   0.948   7.197
 2841W        W 3838   2.589   0.126   4.024
 2842W        W 3839   3.821   6.636   1.848
 2843W        W 3840   2.995   7.608   3.578
 2844W        W 3841   0.609   2.654   3.781
 2845W        W 3842   3.265   4.502   4.341
 2846W        W 3843   5.207   5.080   7.280
 2847W        W 3844   3.690   2.010   3.009
 2848W        W 3845   5.853   0.378   1.704
 2849W        W 3846   2.337   2.456   4.426
 2850W        W 3847   4.266   5.567   3.487
 2851W        W 3848   7.176   4.189   5.776
 2852W        W 3849   6.912   6.537   1.504
 2853W        W 3850   3.824   4.257   4.527
 2854W        W 3851   6.551   6.337   3.385
 2855W        W 3852   6.007   2.740   4.951
 2856W        W 3853   2.389   6.198   5.755
 2857W        W 3854   7.060   0.992   6.108
 2858W        W 3855   7.997   7.211   6.058
 2859W        W 3856   4.297   1.238   7.592
 2860W        W 3857   5.536   1.543   0.854
 2861W        W 3858   7.716   4.618   6.419
 2862W        W 3859   0.216   2.031   1.173
 2863W        W 3860   1.534   6.012   6.275
 2864W        W 3861   5.772   2.082   7.512
 2865W        W 3862   7.672   3.288   5.198
 2866W        W 3863   3.922   3.847   5.160
 2867W        W 3864   4.176   1.545   6.597
 2868W        W 3865   7.371   1.735   2.626
 2869W        W 3866   2.099   4.948   1.359
 2870W        W 3867   1.979   2.925   5.196
 2871W        W 3868   5.512   3.226   5.652
 2872W        W 3869   4.035   6.915   6.663
 2873W        W 3870   0.837   1.481   6.899
 2874W        W 3871   4.079   2.097   6.622
 2875W        W 3872   1.239   6.828   0.948
 2876W        W 3873   3.007   3.151   4.463
 2877W        W 3874   2.301   0.606   3.159
 2878W        W 3875   2.064   7.514   6.003
 2879W        W 3876   6.560   1.717   6.454
 2880W        W 3877   5.200   2.707   0.208
 2881W        W 3878   0.113   2.912   1.570
 2882W        W 3879   6.683   3.322   2.064
 2883W        W 3880   4.895   6.566   0.445
 2884W        W 3881   4.180   1.537   4.027
 2885W        W 3882   0.468   0.338   3.131
 2886W        W 3883   1.134   0.975   3.303
 2887W        W 3884   2.335   1.946   4.406
 2888W        W 3885   3.106   0.945   3.996
 2889W        W 3886   6.253   7.750   4.413
 2890W        W 3887   6.458   6.458   7.333
 2891W        W 3888   5.521   0.287   5.946
 2892W        W 3889   1.186   5.948   7.210
 2893W        W 3890   4.661   3.696   6.931
 2894W        W 3891   3.393   6.711   5.111
 2895W        W 3892   1.514   2.009   6.748
 2896W        W 3893   5.649   6.180   1.642
 2897W        W 3894   5.439   6.812   5.209
 2898W        W 3895   0.477   4.680   7.818
 2899W        W 3896   0.556   5.789   2.392
 2900W        W 3897   6.272   7.621   7.019
 2901W        W 3898   4.463   2.393   4.383
 2902W        W 3899   6.942   4.132   2.518
 2903W        W 3900   6.941   1.260   5.189
 2904W        W 3901   0.193   4.663   2.090
 2905W        W 3902   6.306   3.879   4.150
 2906W        W 3903   4.621   4.786   3.974
 2907W        W 3904   7.592   0.064   3.783
 2908W        W 3905   5.298   5.955   6.066
 2909W        W 3906   1.740   0.626   7.870
 2910W        W 3907   6.875   7.217   4.084
 2911W        W 3908   2.720   4.298   5.305
 2912W        W 3909   3.233   1.042   4.825
 2913W        W 3910   7.381   6.703   1.307
 2914W        W 3911   6.790   0.918   3.051
 2915W        W 3912   7.971   4.394   3.352
 2916W        W 3913   7.875   5.553   3.502
 2917W        W 3914   7.847   5.814   1.770
 2918W        W 3915   4.836   0.853   6.407
 2919W        W 3916   1.339   0.179   6.485
 2920W        W 3917   7.211   5.433   1.623
 2921W        W 3918   3.147   5.745   5.887
 2922W        W 3919   1.844   2.214   4.828
 2923W        W 3920   3.966   4.713   7.561
 2924W        W 3921   3.231   0.502   3.725
 2925W        W 3922   3.846   1.435   2.737
 2926W        W 3923   5.974   6.562   0.828
 2927W        W 3924   1.681   2.878   2.678
 2928W        W 3925   7.958   3.791   7.836
 2929W        W 3926   3.629   0.469   7.455
 2930W        W 3927   1.492   4.113   0.441
 2931W        W 3928   4.536   6.672   1.547
 2932W        W 3929   6.950   4.984   4.108
 2933W        W 3930   7.187   1.433   0.056
 2934W        W 3931   2.957   1.383   7.034
 2935W        W 3932   7.131   6.392   4.615
 2936W        W 3933   6.548   6.166   1.709
 2937W        W 3934   0.735   3.389   2.605
 2938W        W 3935   6.677   0.579   0.207
 2939W        W 3936   7.471   6.588   2.948
 2940W        W 3937   6.740   5.774   6.680
 2941W        W 3938   1.848   4.244   7.305
 2942W        W 3939   6.027   5.222   5.402
 2943W        W 3940   0.199   4.902   2.766
 2944W        W 3941   0.103   1.926   5.540
 2945W        W 3942   3.458   1.292   6.421
 2946W        W 3943   4.924   7.144   5.798
 2947W        W 3944   1.753   3.227   0.841
 2948W        W 3945   0.011   0.347   6.489
 2949W        W 3946   5.957   1.783   5.860
 2950W        W 3947   0.038   1.318   7.673
 2951W        W 3948   1.552   3.619   4.057
 2952W        W 3949   3.051   6.778   6.892
 2953W        W 3950   1.999   6.453   4.619
 2954W        W 3951   4.345   6.035   1.101
 2955W        W 3952   5.342   1.582   2.248
 2956W        W 3953   7.672   7.282   0.382
 2957W        W 3954   1.700   0.416   3.184
 2958W        W 3955   2.213   7.194   0.983
 2959W        W 3956   6.255   0.468   0.821
 2960W        W 3957   6.146   2.516   3.667
 2961W        W 3958   0.570   4.590   2.863
 2962W        W 3959   3.708   5.585   0.030
 2963W        W 3960   5.793   5.722   6.116
 2964W        W 3961   4.357   3.115   6.390
 2965W        W 3962   7.555   5.064   6.251
 2966W        W 3963   5.725   3.392   1.641
 2967W        W 3964   5.662   0.735   5.122
 2968W        W 3965   6.843   6.020   6.234
 2969W        W 3966   4.943   2.315   2.041
 2970W        W 3967   7.351   1.161   3.073
 2971W        W 3968   4.334   2.648   4.820
 2972W        W 3969   6.690   1.098   1.598
 2973W        W 3970   3.062   3.244   3.540
 2974W        W 3971   0.854   0.066   3.326
 2975W        W 3972   0.511   5.687   3.208
 2976W        W 3973   1.297   7.142   5.489
 2977W        W 3974   4.532   1.628   5.858
 2978W        W 3975   7.395   1.030   4.715
 2979W        W 3976   7.669   7.724   6.275
 2980W        W 3977   0.802   6.497   3.760
 2981W        W 3978   6.560   6.379   6.363
 2982W        W 3979   3.797   1.379   0.326
 2983W        W 3980   3.737   2.173   6.263
 2984W        W 3981   7.161   5.829   5.822
 2985W        W 3982   3.023   0.525   4.222
 2986W        W 3983   0.586   1.288   5.096
 2987W        W 3984   7.395   2.613   2.506
 2988W        W 3985   3.339   1.113   0.121
 2989W        W 3986   3.579   7.078   5.626
 2990W        W 3987   1.069   6.801   5.081
 2991W        W 3988   3.610   6.196   1.519
 2992W        W 3989   1.576   7.372   4.357
 2993W        W 3990   7.734   4.078   4.226
 2994W        W 3991   2.917   0.717   1.827
 2995W        W 3992   7.936   0.045   3.374
 2996W        W 3993   1.687   7.264   1.384
 2997W        W 3994   6.117   7.001   4.924
 2998W        W 3995   3.329   4.732   1.585
 2999W        W 3996   5.061   1.881   6.200
 3000W        W 3997   5.218   7.600   6.861
 3001W        W 3998   6.414   6.968   6.282
 3002W        W 3999   6.056   3.713   0.443
 3003W        W 4000   2.456   2.126   3.058
 3004W        W 4001   4.299   4.938   0.303
 3005W        W 4002   4.535   3.129   1.100
 3006W        W 4003   6.696   7.099   4.926
 3007W        W 4004   4.623   3.627   1.139
 3008W        W 4005   4.431   3.785   3.552
 3009W        W 4006   5.945   4.666   5.380
 3010W        W 4007   3.115   7.387   7.729
 3011W        W 4008   1.918   2.978   6.992
 3012W        W 4009   6.150   2.592   5.916
 3013W        W 4010   5.071   7.037   0.369
 3014W        W 4011   1.485   7.108   5.036
 3015W        W 4012   2.879   2.641   1.273
 3016W        W 4013   5.584   6.238   2.162
 3017W        W 4014   3.604   3.791   1.787
 3018W        W 4015   5.474   0.937   0.396
 3019W        W 4016   4.891   3.539   4.947
 3020W        W 4017   4.135   7.007   5.707
 3021W        W 4018   2.626   5.089   2.396
 3022W        W 4019   5.991   7.197   0.743
 3023W        W 4020   2.566   3.027   0.228
 3024W        W 4021   1.709   2.541   5.395
 3025W        W 4022   6.757   7.780   4.432
 3026W        W 4023   1.482   4.089   7.696
 3027W        W 4024   7.366   2.889   4.010
 3028W        W 4025   0.833   4.579   5.175
 3029W        W 4026   0.620   4.815   3.816
 3030W        W 4027   5.314   5.322   3.530
 3031W        W 4028   3.005   1.747   0.189
 3032W        W 4029   7.040   2.248   7.471
 3033W        W 4030   2.837   2.853   1.729
 3034W        W 4031   6.252   2.164   6.140
 3035W        W 4032   5.157   2.816   2.233
 3036W        W 4033   1.168   2.728   7.465
 3037W        W 4034   2.291   0.105   0.592
 3038W        W 4035   5.155   7.009   2.498
 3039W        W 4036   5.591   5.385   7.412
 3040W        W 4037   0.816   2.248   7.328
 3041W        W 4038   0.989   7.181   5.893
 3042W        W 4039   6.030   7.377   6.199
 3043W        W 4040   4.826   7.426   5.397
 3044W        W 4041   3.940   7.340   2.486
 3045W        W 4042   1.952   6.073   6.014
 3046W        W 4043   3.271   4.436   5.319
 3047W        W 4044   5.992   7.705   1.618
 3048W        W 4045   6.305   3.372   2.875
 3049W        W 4046   3.107   4.155   6.390
 3050W        W 4047   4.697   4.268   4.767
 3051W        W 4048   7.077   2.092   3.833
 3052W        W 4049   4.392   3.644   4.943
 3053W        W 4050   7.484   5.038   0.358
 3054W        W 4051   2.018   1.156   6.546
 3055W        W 4052   6.581   4.574   5.619
 3056W        W 4053   2.468   4.585   7.133
 3057W        W 4054   6.267   2.332   7.882
 3058W        W 4055   5.195   6.807   6.129
 3059W        W 4056   1.967   3.374   7.300
 3060W        W 4057   2.384   6.654   7.205
 3061W        W 4058   3.565   6.423   2.238
 3062W        W 4059   0.673   7.302   0.692
 3063W        W 4060   7.359   0.249   4.208
 3064W        W 4061   6.546   1.892   0.675
 3065W        W 4062   1.656   6.815   3.614
 3066W        W 4063   2.814   5.380   0.765
 3067W        W 4064   1.911   3.441   6.744
 3068W        W 4065   3.941   3.366   5.051
 3069W        W 4066   7.356   0.399   6.885
 3070W        W 4067   3.847   1.849   3.887
 3071W        W 4068   4.835   6.747   6.495
 3072W        W 4069   1.709   4.198   2.667
 3073W        W 4070   7.965   4.383   6.936
 3074W        W 4071   4.598   7.895   6.204
 3075W        W 4072   5.238   3.845   6.036
 3076W        W 4073   6.464   1.507   1.426
 3077W        W 4074   0.529   2.351   0.221
 3078W        W 4075   3.222   3.049   1.437
 3079W        W 4076   1.870   4.466   4.112
 3080W        W 4077   2.052   2.898   0.179
 3081W        W 4078   4.787   4.708   5.009
 3082W        W 4079   0.538   6.621   2.092
 3083W        W 4080   2.206   2.504   5.098
 3084W        W 4081   0.199   2.664   2.385
 3085W        W 4082   2.388   2.894   3.322
 3086W        W 4083   4.762   3.283   6.702
 3087W        W 4084   0.011   6.640   2.133
 3088W        W 4085   0.424   4.086   2.870
 3089W        W 4086   7.746   4.835   3.349
 3090W        W 4087   2.374   0.800   3.608
 3091W        W 4088   0.866   5.105   7.626
 3092W        W 4089   7.648   3.556   7.534
 3093W        W 4090   6.581   2.494   1.553
 3094W        W 4091   0.096   2.253   4.014
 3095W        W 4092   0.201   6.891   4.609
 3096W        W 4093   7.460   3.734   4.470
 3097W        W 4094   2.260   6.919   2.093
 3098W        W 4095   1.655   6.398   5.748
 3099W        W 4096   4.495   2.886   6.830
 3100W        W 4097   6.106   5.019   0.801
 3101W        W 4098   2.340   2.748   1.443
 3102W        W 4099   0.754   7.033   5.499
 3103W        W 4100   7.116   3.414   2.333
 3104W        W 4101   1.705   6.551   6.245
 3105W        W 4102   4.222   5.349   7.994
 3106W        W 4103   3.798   1.987   2.012
 3107W        W 4104   2.484   0.855   1.479
 3108W        W 4105   2.493   0.891   5.441
 3109W        W 4106   1.903   4.814   6.494
 3110W        W 4107   1.995   1.598   5.111
 3111W        W 4108   5.116   1.352   2.599
 3112W        W 4109   7.211   6.690   6.082
 3113W        W 4110   7.024   6.258   6.679
 3114W        W 4111   5.457   1.338   7.069
 3115W        W 4112   6.236   3.846   4.679
 3116W        W 4113   4.997   7.370   2.187
 3117W        W 4114   3.320   5.956   4.833
 3118W        W 4115   5.305   1.714   6.755
 3119W        W 4116   5.463   5.398   0.493
 3120W        W 4117   6.219   6.928   7.135
 3121W        W 4118   0.391   1.970   7.560
 3122W        W 4119   0.704   3.334   5.832
 3123W        W 4120   0.265   3.825   1.387
 3124W        W 4121   7.118   1.325   4.286
 3125W        W 4122   6.967   3.881   2.949
 3126W        W 4123   7.328   3.863   2.312
 3127W        W 4124   0.932   1.406   5.423
 3128W        W 4125   2.476   6.900   6.206
 3129W        W 4126   6.257   4.506   7.463
 3130W        W 4127   3.410   7.503   3.382
 3131W        W 4128   1.736   3.761   4.586
 3132W        W 4129   1.303   6.840   4.637
 3133W        W 4130   5.838   1.012   6.843
 3134W        W 4131   4.542   6.351   3.727
 3135W        W 4132   0.253   3.344   5.539
 3136W        W 4133   5.395   5.350   4.708
 3137W        W 4134   1.146   1.681   6.469
 3138W        W 4135   2.838   6.456   7.571
 3139W        W 4136   7.641   0.391   2.676
 3140W        W 4137   2.032   4.469   1.172
 3141W        W 4138   5.249   6.548   4.832
 3142W        W 4139   0.823   2.017   2.145
 3143W        W 4140   6.092   0.274   1.284
 3144W        W 4141   6.921   1.503   6.044
 3145W        W 4142   2.090   6.952   1.632
 3146W        W 4143   0.868   6.791   2.487
 3147W        W 4144   3.458   7.616   0.611
 3148W        W 4145   3.035   5.330   1.266
 3149W        W 4146   5.119   0.728   4.881
 3150W        W 4147   2.782   0.521   3.309
 3151W        W 4148   5.491   2.630   6.781
 3152W        W 4149   1.843   4.437   7.851
 3153W        W 4150   0.082   3.144   2.636
 3154W        W 4151   6.795   1.871   3.414
 3155W        W 4152   5.071   3.741   6.542
 3156W        W 4153   1.977   7.542   3.071
 3157W        W 4154   7.326   6.667   3.432
 3158W        W 4155   4.433   2.152   2.679
 3159W        W 4156   7.477   0.812   1.332
 3160W        W 4157   1.671   5.985   4.610
 3161W        W 4158   1.716   3.265   0.226
 3162W        W 4159   6.862   1.258   6.570
 3163W        W 4160   3.182   2.071   6.049
 3164W        W 4161   1.807   0.803   4.299
 3165W        W 4162   5.569   3.620   3.944
 3166W        W 4163   4.315   4.419   0.137
 3167W        W 4164   7.057   2.002   0.095
 3168W        W 4165   4.712   3.321   3.477
 3169W        W 4166   3.079   5.876   1.077
 3170W        W 4167   6.481   4.268   0.208
 3171W        W 4168   6.110   6.320   6.552
 3172W        W 4169   3.480   3.995   5.478
 3173W        W 4170   1.253   6.368   6.075
 3174W        W 4171   4.509   2.980   2.716
 3175W        W 4172   0.824   3.061   4.860
 3176W        W 4173   4.312   5.065   4.226
 3177W        W 4174   2.550   3.855   5.265
 3178W        W 4175   2.838   2.910   7.734
 3179W        W 4176   4.730   5.030   2.123
 3180W        W 4177   5.302   4.533   3.096
 3181W        W 4178   5.460   7.517   2.475
 3182W        W 4179   4.717   5.174   3.466
 3183W        W 4180   7.332   1.354   6.404
 3184W        W 4181   3.270   3.087   4.014
 3185W        W 4182   5.425   1.206   4.254
 3186W        W 4183   7.820   1.633   1.681
 3187W        W 4184   3.135   4.905   0.947
 3188W        W 4185   1.355   5.842   7.738
 3189W        W 4186   5.179   2.493   0.708
 3190W        W 4187   4.732   0.192   6.578
 3191W        W 4188   5.865   0.965   1.984
   8.00000   8.00000   8.00000
