Martini system from ../2_Creating_coordinates/TYR-PRO-TYR_aa.pdb
 4272
    1TYR     BB    1   4.484   7.944   0.588
    1TYR    SC1    2   4.570   8.203   0.438
    1TYR    SC2    3   4.807   8.163   0.445
    1TYR    SC3    4   4.832   8.254   0.221
    2PRO     BB    5   4.740   7.777   0.367
    2PRO    SC1    6   4.585   7.704   0.348
    3TYR     BB    7   5.057   7.721   0.375
    3TYR    SC1    8   5.155   7.917   0.184
    3TYR    SC2    9   5.394   7.894   0.173
    3TYR    SC3   10   5.389   7.927  -0.068
    1TYR     BB   11   4.161   2.199   1.939
    1TYR    SC1   12   3.989   2.374   2.130
    1TYR    SC2   13   4.109   2.323   2.332
    1TYR    SC3   14   4.083   2.551   2.410
    2PRO     BB   15   4.452   2.345   2.129
    2PRO    SC1   16   4.467   2.376   1.960
    3TYR     BB   17   4.616   2.277   2.398
    3TYR    SC1   18   4.514   2.480   2.580
    3TYR    SC2   19   4.623   2.448   2.792
    3TYR    SC3   20   4.644   2.689   2.821
    1TYR     BB   21   5.231   7.219   7.065
    1TYR    SC1   22   5.000   7.291   7.262
    1TYR    SC2   23   5.054   7.128   7.430
    1TYR    SC3   24   4.996   7.286   7.606
    2PRO     BB   25   5.442   7.208   7.377
    2PRO    SC1   26   5.507   7.320   7.263
    3TYR     BB   27   5.518   6.991   7.602
    3TYR    SC1   28   5.356   7.082   7.827
    3TYR    SC2   29   5.395   6.932   8.011
    3TYR    SC3   30   5.395   7.118   8.167
    1TYR     BB   31   4.214   1.279   6.483
    1TYR    SC1   32   4.370   1.504   6.334
    1TYR    SC2   33   4.527   1.360   6.222
    1TYR    SC3   34   4.517   1.499   6.023
    2PRO     BB   35   4.232   1.099   6.152
    2PRO    SC1   36   4.069   1.116   6.205
    3TYR     BB   37   4.440   0.905   6.002
    3TYR    SC1   38   4.556   1.086   5.805
    3TYR    SC2   39   4.718   0.961   5.678
    3TYR    SC3   40   4.647   1.071   5.474
    1TYR     BB   41   2.196   7.984   6.179
    1TYR    SC1   42   2.319   7.834   5.935
    1TYR    SC2   43   2.311   7.613   6.030
    1TYR    SC3   44   2.251   7.519   5.815
    2PRO     BB   45   1.952   7.696   6.184
    2PRO    SC1   46   1.870   7.847   6.171
    3TYR     BB   47   1.939   7.401   6.313
    3TYR    SC1   48   1.988   7.235   6.079
    3TYR    SC2   49   1.983   7.005   6.151
    3TYR    SC3   50   1.864   6.941   5.950
    1TYR     BB   51   4.224   6.755   3.072
    1TYR    SC1   52   4.370   6.972   2.903
    1TYR    SC2   53   4.527   6.825   2.795
    1TYR    SC3   54   4.507   6.950   2.588
    2PRO     BB   55   4.236   6.554   2.753
    2PRO    SC1   56   4.074   6.571   2.810
    3TYR     BB   57   4.443   6.354   2.609
    3TYR    SC1   58   4.548   6.524   2.397
    3TYR    SC2   59   4.709   6.394   2.273
    3TYR    SC3   60   4.628   6.489   2.064
    1TYR     BB   61   6.374   5.917   7.660
    1TYR    SC1   62   6.314   5.891   7.355
    1TYR    SC2   63   6.107   5.770   7.377
    1TYR    SC3   64   6.012   5.893   7.191
    2PRO     BB   65   6.008   6.003   7.686
    2PRO    SC1   66   6.105   6.128   7.752
    3TYR     BB   67   5.730   5.843   7.717
    3TYR    SC1   68   5.621   5.864   7.448
    3TYR    SC2   69   5.409   5.748   7.446
    3TYR    SC3   70   5.313   5.921   7.305
    1TYR     BB   71   1.938   6.848   3.242
    1TYR    SC1   72   1.778   6.980   3.474
    1TYR    SC2   73   1.916   6.899   3.653
    1TYR    SC3   74   1.891   7.109   3.772
    2PRO     BB   75   2.240   6.971   3.431
    2PRO    SC1   76   2.239   7.031   3.270
    3TYR     BB   77   2.427   6.862   3.670
    3TYR    SC1   78   2.336   7.027   3.893
    3TYR    SC2   79   2.463   6.963   4.087
    3TYR    SC3   80   2.480   7.195   4.156
    1TYR     BB   81   2.455   6.765   0.209
    1TYR    SC1   82   2.736   6.875   0.285
    1TYR    SC2   83   2.659   7.074   0.398
    1TYR    SC3   84   2.834   7.050   0.565
    2PRO     BB   85   2.363   6.861   0.562
    2PRO    SC1   86   2.332   6.694   0.533
    3TYR     BB   87   2.259   7.125   0.715
    3TYR    SC1   88   2.501   7.211   0.852
    3TYR    SC2   89   2.447   7.411   0.975
    3TYR    SC3   90   2.582   7.336   1.162
    1TYR     BB   91   7.679   7.365   3.454
    1TYR    SC1   92   7.976   7.310   3.529
    1TYR    SC2   93   7.967   7.403   3.751
    1TYR    SC3   94   8.114   7.228   3.834
    2PRO     BB   95   7.607   7.237   3.802
    2PRO    SC1   96   7.521   7.146   3.683
    3TYR     BB   97   7.593   7.361   4.099
    3TYR    SC1   98   7.842   7.262   4.214
    3TYR    SC2   99   7.854   7.343   4.440
    3TYR    SC3  100   7.944   7.130   4.515
    1TYR     BB  101   0.965   6.312   7.662
    1TYR    SC1  102   0.782   6.295   7.411
    1TYR    SC2  103   0.922   6.425   7.265
    1TYR    SC3  104   0.869   6.280   7.078
    2PRO     BB  105   1.244   6.244   7.418
    2PRO    SC1  106   1.242   6.127   7.544
    3TYR     BB  107   1.434   6.417   7.224
    3TYR    SC1  108   1.316   6.361   6.964
    3TYR    SC2  109   1.443   6.482   6.799
    3TYR    SC3  110   1.431   6.294   6.646
    1TYR     BB  111   2.301   4.898   2.986
    1TYR    SC1  112   2.042   4.984   3.134
    1TYR    SC2  113   2.067   4.838   3.323
    1TYR    SC3  114   1.980   5.010   3.472
    2PRO     BB  115   2.458   4.918   3.328
    2PRO    SC1  116   2.541   5.020   3.216
    3TYR     BB  117   2.495   4.723   3.582
    3TYR    SC1  118   2.298   4.832   3.767
    3TYR    SC2  119   2.306   4.699   3.968
    3TYR    SC3  120   2.280   4.899   4.104
    1TYR     BB  121   0.499   2.337   7.233
    1TYR    SC1  122   0.504   2.038   7.316
    1TYR    SC2  123   0.734   1.996   7.262
    1TYR    SC3  124   0.758   1.853   7.457
    2PRO     BB  125   0.829   2.354   7.414
    2PRO    SC1  126   0.718   2.468   7.479
    3TYR     BB  127   1.139   2.301   7.342
    3TYR    SC1  128   1.185   2.044   7.473
    3TYR    SC2  129   1.414   1.983   7.433
    3TYR    SC3  130   1.435   1.899   7.660
    1TYR     BB  131   4.735   5.123   3.153
    1TYR    SC1  132   4.990   5.297   3.110
    1TYR    SC2  133   4.969   5.428   3.311
    1TYR    SC3  134   5.210   5.423   3.342
    2PRO     BB  135   4.858   5.098   3.508
    2PRO    SC1  136   4.838   4.942   3.439
    3TYR     BB  137   4.829   5.271   3.779
    3TYR    SC1  138   5.092   5.396   3.795
    3TYR    SC2  139   5.095   5.533   3.993
    3TYR    SC3  140   5.323   5.464   4.041
    1TYR     BB  141   7.108   0.594   5.411
    1TYR    SC1  142   7.147   0.799   5.180
    1TYR    SC2  143   6.923   0.785   5.091
    1TYR    SC3  144   6.923   1.023   5.047
    2PRO     BB  145   6.781   0.773   5.465
    2PRO    SC1  146   6.876   0.773   5.609
    3TYR     BB  147   6.481   0.754   5.349
    3TYR    SC1  148   6.473   0.985   5.172
    3TYR    SC2  149   6.254   0.992   5.072
    3TYR    SC3  150   6.248   1.234   5.095
    1TYR     BB  151   6.148   2.141   4.672
    1TYR    SC1  152   6.388   2.076   4.858
    1TYR    SC2  153   6.327   2.225   5.037
    1TYR    SC3  154   6.402   2.062   5.202
    2PRO     BB  155   5.945   2.118   4.989
    2PRO    SC1  156   5.886   2.008   4.870
    3TYR     BB  157   5.860   2.316   5.228
    3TYR    SC1  158   6.035   2.225   5.443
    3TYR    SC2  159   5.989   2.361   5.636
    3TYR    SC3  160   6.008   2.167   5.781
    1TYR     BB  161   5.753   7.442   1.764
    1TYR    SC1  162   5.700   7.247   2.000
    1TYR    SC2  163   5.927   7.172   2.027
    1TYR    SC3  164   5.901   7.168   2.269
    2PRO     BB  165   6.052   7.547   1.968
    2PRO    SC1  166   5.951   7.682   1.933
    3TYR     BB  167   6.358   7.450   2.003
    3TYR    SC1  168   6.345   7.316   2.261
    3TYR    SC2  169   6.566   7.233   2.311
    3TYR    SC3  170   6.541   7.296   2.544
    1TYR     BB  171  -0.424   3.066   3.164
    1TYR    SC1  172  -0.150   3.205   3.214
    1TYR    SC2  173  -0.040   3.015   3.314
    1TYR    SC3  174   0.168   3.073   3.202
    2PRO     BB  175  -0.213   2.778   3.043
    2PRO    SC1  176  -0.324   2.829   2.921
    3TYR     BB  177  -0.067   2.522   3.175
    3TYR    SC1  178   0.211   2.607   3.171
    3TYR    SC2  179   0.343   2.430   3.266
    3TYR    SC3  180   0.516   2.465   3.100
    1TYR     BB  181   0.371   0.864   0.382
    1TYR    SC1  182   0.460   0.950   0.097
    1TYR    SC2  183   0.250   1.047   0.029
    1TYR    SC3  184   0.366   1.225  -0.088
    2PRO     BB  185   0.211   1.205   0.395
    2PRO    SC1  186   0.321   1.184   0.525
    3TYR     BB  187  -0.071   1.335   0.308
    3TYR    SC1  188   0.006   1.482   0.068
    3TYR    SC2  189  -0.192   1.590  -0.018
    3TYR    SC3  190  -0.063   1.789  -0.072
    1TYR     BB  191   1.998  -0.136   4.520
    1TYR    SC1  192   1.858   0.138   4.569
    1TYR    SC2  193   1.873   0.218   4.343
    1TYR    SC3  194   1.652   0.319   4.361
    2PRO     BB  195   1.783  -0.149   4.211
    2PRO    SC1  196   1.757  -0.287   4.311
    3TYR     BB  197   1.802  -0.044   3.907
    3TYR    SC1  198   1.619   0.183   3.913
    3TYR    SC2  199   1.616   0.280   3.693
    3TYR    SC3  200   1.376   0.315   3.708
    1TYR     BB  201   5.414   7.723   5.221
    1TYR    SC1  202   5.540   7.783   4.943
    1TYR    SC2  203   5.541   7.556   4.862
    1TYR    SC3  204   5.482   7.632   4.639
    2PRO     BB  205   5.180   7.502   5.025
    2PRO    SC1  206   5.092   7.619   5.116
    3TYR     BB  207   5.178   7.198   4.918
    3TYR    SC1  208   5.231   7.237   4.634
    3TYR    SC2  209   5.235   7.019   4.531
    3TYR    SC3  210   5.116   7.106   4.338
    1TYR     BB  211   4.799   7.945   4.002
    1TYR    SC1  212   4.965   7.720   3.866
    1TYR    SC2  213   4.838   7.710   3.661
    1TYR    SC3  214   5.041   7.674   3.533
    2PRO     BB  215   4.814   8.109   3.663
    2PRO    SC1  216   4.878   8.213   3.784
    3TYR     BB  217   4.644   8.099   3.389
    3TYR    SC1  218   4.819   7.941   3.218
    3TYR    SC2  219   4.711   7.919   3.004
    3TYR    SC3  220   4.924   7.949   2.891
    1TYR     BB  221   6.028   1.226  -0.166
    1TYR    SC1  222   5.930   1.431   0.047
    1TYR    SC2  223   6.097   1.381   0.213
    1TYR    SC3  224   6.112   1.616   0.273
    2PRO     BB  225   6.371   1.355  -0.077
    2PRO    SC1  226   6.340   1.373  -0.246
    3TYR     BB  227   6.597   1.289   0.143
    3TYR    SC1  228   6.566   1.513   0.326
    3TYR    SC2  229   6.727   1.485   0.503
    3TYR    SC3  230   6.774   1.723   0.502
    1TYR     BB  231   4.424   5.990   8.073
    1TYR    SC1  232   4.683   5.897   7.928
    1TYR    SC2  233   4.639   6.007   7.718
    1TYR    SC3  234   4.874   6.062   7.694
    2PRO     BB  235   4.503   6.325   7.918
    2PRO    SC1  236   4.490   6.338   8.089
    3TYR     BB  237   4.443   6.474   7.639
    3TYR    SC1  238   4.702   6.456   7.507
    3TYR    SC2  239   4.682   6.562   7.292
    3TYR    SC3  240   4.902   6.662   7.318
    1TYR     BB  241   4.091   1.879  -0.247
    1TYR    SC1  242   4.004   1.987   0.032
    1TYR    SC2  243   4.203   1.922   0.151
    1TYR    SC3  244   4.195   2.126   0.282
    2PRO     BB  245   4.422   2.037  -0.162
    2PRO    SC1  246   4.361   2.099  -0.311
    3TYR     BB  247   4.690   1.950  -0.005
    3TYR    SC1  248   4.661   2.099   0.244
    3TYR    SC2  249   4.853   2.049   0.381
    3TYR    SC3  250   4.865   2.281   0.453
    1TYR     BB  251   7.628   7.209   1.415
    1TYR    SC1  252   7.864   7.182   1.616
    1TYR    SC2  253   7.927   7.414   1.619
    1TYR    SC3  254   7.974   7.402   1.857
    2PRO     BB  255   7.540   7.514   1.619
    2PRO    SC1  256   7.408   7.403   1.613
    3TYR     BB  257   7.621   7.826   1.622
    3TYR    SC1  258   7.798   7.836   1.853
    3TYR    SC2  259   7.874   8.064   1.876
    3TYR    SC3  260   7.853   8.049   2.118
    1TYR     BB  261   0.840   5.699   5.909
    1TYR    SC1  262   0.565   5.741   5.770
    1TYR    SC2  263   0.627   5.934   5.641
    1TYR    SC3  264   0.495   5.856   5.453
    2PRO     BB  265   0.981   5.764   5.566
    2PRO    SC1  266   1.034   5.612   5.626
    3TYR     BB  267   1.068   6.022   5.393
    3TYR    SC1  268   0.846   6.042   5.204
    3TYR    SC2  269   0.888   6.231   5.062
    3TYR    SC3  270   0.807   6.108   4.869
    1TYR     BB  271   4.218   8.297   5.110
    1TYR    SC1  272   4.479   8.211   5.256
    1TYR    SC2  273   4.405   7.991   5.318
    1TYR    SC3  274   4.627   7.901   5.275
    2PRO     BB  275   4.232   7.952   4.960
    2PRO    SC1  276   4.228   8.072   4.837
    3TYR     BB  277   4.132   7.656   5.042
    3TYR    SC1  278   4.382   7.531   5.122
    3TYR    SC2  279   4.332   7.305   5.189
    3TYR    SC3  280   4.534   7.225   5.081
    1TYR     BB  281   7.568   4.438   5.995
    1TYR    SC1  282   7.397   4.688   5.925
    1TYR    SC2  283   7.571   4.811   5.812
    1TYR    SC3  284   7.411   4.893   5.649
    2PRO     BB  285   7.692   4.472   5.640
    2PRO    SC1  286   7.625   4.315   5.667
    3TYR     BB  287   7.926   4.633   5.488
    3TYR    SC1  288   7.773   4.843   5.356
    3TYR    SC2  289   7.928   4.980   5.233
    3TYR    SC3  290   7.772   4.998   5.049
    1TYR     BB  291   0.888   0.850   5.558
    1TYR    SC1  292   0.686   0.730   5.354
    1TYR    SC2  293   0.782   0.509   5.346
    1TYR    SC3  294   0.560   0.410   5.333
    2PRO     BB  295   0.838   0.524   5.741
    2PRO    SC1  296   0.801   0.658   5.843
    3TYR     BB  297   0.967   0.229   5.734
    3TYR    SC1  298   0.756   0.078   5.599
    3TYR    SC2  299   0.831  -0.150   5.581
    3TYR    SC3  300   0.607  -0.230   5.633
    1TYR     BB  301   4.849   3.990   6.100
    1TYR    SC1  302   5.051   3.796   5.965
    1TYR    SC2  303   4.913   3.599   5.975
    1TYR    SC3  304   4.993   3.528   5.757
    2PRO     BB  305   4.596   3.821   5.877
    2PRO    SC1  306   4.597   3.992   5.852
    3TYR     BB  307   4.409   3.559   5.890
    3TYR    SC1  308   4.551   3.379   5.711
    3TYR    SC2  309   4.428   3.172   5.704
    3TYR    SC3  310   4.467   3.153   5.465
    1TYR     BB  311   2.167   3.333   6.055
    1TYR    SC1  312   1.990   3.411   6.298
    1TYR    SC2  313   1.989   3.195   6.404
    1TYR    SC3  314   2.002   3.299   6.623
    2PRO     BB  315   2.376   3.155   6.313
    2PRO    SC1  316   2.471   3.268   6.225
    3TYR     BB  317   2.378   2.865   6.454
    3TYR    SC1  318   2.273   2.929   6.718
    3TYR    SC2  319   2.264   2.725   6.845
    3TYR    SC3  320   2.340   2.841   7.044
    1TYR     BB  321   7.542   0.994   6.600
    1TYR    SC1  322   7.705   1.211   6.751
    1TYR    SC2  323   7.564   1.223   6.946
    1TYR    SC3  324   7.759   1.250   7.089
    2PRO     BB  325   7.528   0.825   6.937
    2PRO    SC1  326   7.597   0.721   6.818
    3TYR     BB  327   7.338   0.837   7.197
    3TYR    SC1  328   7.506   0.987   7.382
    3TYR    SC2  329   7.384   1.010   7.589
    3TYR    SC3  330   7.587   0.972   7.717
    1TYR     BB  331   6.711   2.685   0.468
    1TYR    SC1  332   6.692   2.392   0.571
    1TYR    SC2  333   6.793   2.431   0.786
    1TYR    SC3  334   6.638   2.275   0.890
    2PRO     BB  335   6.589   2.774   0.813
    2PRO    SC1  336   6.484   2.839   0.692
    3TYR     BB  337   6.722   2.830   1.102
    3TYR    SC1  338   6.656   2.583   1.243
    3TYR    SC2  339   6.747   2.601   1.465
    3TYR    SC3  340   6.549   2.496   1.558
    1TYR     BB  341   0.664   5.567   3.392
    1TYR    SC1  342   0.738   5.677   3.110
    1TYR    SC2  343   0.553   5.578   2.992
    1TYR    SC3  344   0.531   5.777   2.853
    2PRO     BB  345   0.314   5.669   3.299
    2PRO    SC1  346   0.363   5.744   3.446
    3TYR     BB  347   0.064   5.537   3.143
    3TYR    SC1  348   0.074   5.680   2.889
    3TYR    SC2  349  -0.106   5.597   2.752
    3TYR    SC3  350  -0.152   5.821   2.671
    1TYR     BB  351   5.877   2.404   7.483
    1TYR    SC1  352   6.110   2.330   7.290
    1TYR    SC2  353   5.983   2.183   7.147
    1TYR    SC3  354   6.103   2.266   6.952
    2PRO     BB  355   5.676   2.438   7.166
    2PRO    SC1  356   5.672   2.584   7.257
    3TYR     BB  357   5.504   2.244   6.974
    3TYR    SC1  358   5.685   2.213   6.747
    3TYR    SC2  359   5.577   2.069   6.588
    3TYR    SC3  360   5.658   2.206   6.404
    1TYR     BB  361   0.940   6.902   2.602
    1TYR    SC1  362   1.160   6.803   2.798
    1TYR    SC2  363   1.054   6.878   3.000
    1TYR    SC3  364   1.130   6.679   3.118
    2PRO     BB  365   0.702   6.757   2.856
    2PRO    SC1  366   0.675   6.688   2.701
    3TYR     BB  367   0.557   6.858   3.126
    3TYR    SC1  368   0.713   6.719   3.329
    3TYR    SC2  369   0.623   6.779   3.544
    3TYR    SC3  370   0.650   6.551   3.623
    1TYR     BB  371   6.051   6.048   4.534
    1TYR    SC1  372   6.285   6.117   4.727
    1TYR    SC2  373   6.463   6.087   4.567
    1TYR    SC3  374   6.583   6.277   4.660
    2PRO     BB  375   6.238   6.265   4.289
    2PRO    SC1  376   6.077   6.322   4.312
    3TYR     BB  377   6.474   6.226   4.073
    3TYR    SC1  378   6.699   6.349   4.212
    3TYR    SC2  379   6.891   6.332   4.068
    3TYR    SC3  380   6.961   6.556   4.130
    1TYR     BB  381   5.937   4.036   3.068
    1TYR    SC1  382   5.691   4.056   3.258
    1TYR    SC2  383   5.691   3.825   3.328
    1TYR    SC3  384   5.630   3.891   3.554
    2PRO     BB  385   6.090   3.836   3.348
    2PRO    SC1  386   6.189   3.971   3.307
    3TYR     BB  387   6.093   3.528   3.442
    3TYR    SC1  388   5.913   3.536   3.671
    3TYR    SC2  389   5.899   3.313   3.760
    3TYR    SC3  390   5.902   3.400   3.987
    1TYR     BB  391   5.394   1.492   4.138
    1TYR    SC1  392   5.267   1.752   4.253
    1TYR    SC2  393   5.429   1.905   4.162
    1TYR    SC3  394   5.255   2.068   4.116
    2PRO     BB  395   5.432   1.694   3.822
    2PRO    SC1  396   5.341   1.550   3.793
    3TYR     BB  397   5.649   1.897   3.698
    3TYR    SC1  398   5.516   2.153   3.737
    3TYR    SC2  399   5.662   2.324   3.650
    3TYR    SC3  400   5.472   2.443   3.556
    1TYR     BB  401   2.779   0.991   5.101
    1TYR    SC1  402   2.473   1.045   5.117
    1TYR    SC2  403   2.403   0.814   5.108
    1TYR    SC3  404   2.225   0.859   5.268
    2PRO     BB  405   2.705   0.717   5.350
    2PRO    SC1  406   2.824   0.826   5.411
    3TYR     BB  407   2.614   0.408   5.339
    3TYR    SC1  408   2.335   0.429   5.419
    3TYR    SC2  409   2.243   0.206   5.418
    3TYR    SC3  410   2.118   0.254   5.621
    1TYR     BB  411   0.225   2.840   0.903
    1TYR    SC1  412   0.441   3.060   0.854
    1TYR    SC2  413   0.631   2.929   0.921
    1TYR    SC3  414   0.766   3.027   0.745
    2PRO     BB  415   0.474   2.612   0.734
    2PRO    SC1  416   0.322   2.609   0.653
    3TYR     BB  417   0.727   2.434   0.823
    3TYR    SC1  418   0.948   2.596   0.724
    3TYR    SC2  419   1.153   2.482   0.780
    3TYR    SC3  420   1.248   2.541   0.565
    1TYR     BB  421   2.836   2.378   5.685
    1TYR    SC1  422   2.564   2.351   5.536
    1TYR    SC2  423   2.621   2.490   5.348
    1TYR    SC3  424   2.499   2.343   5.198
    2PRO     BB  425   2.985   2.327   5.343
    2PRO    SC1  426   3.044   2.209   5.454
    3TYR     BB  427   3.064   2.511   5.091
    3TYR    SC1  428   2.849   2.449   4.905
    3TYR    SC2  429   2.886   2.578   4.705
    3TYR    SC3  430   2.818   2.390   4.567
    1TYR     BB  431   3.500   3.106   5.542
    1TYR    SC1  432   3.343   3.343   5.416
    1TYR    SC2  433   3.222   3.406   5.614
    1TYR    SC3  434   3.245   3.641   5.557
    2PRO     BB  435   3.553   3.344   5.829
    2PRO    SC1  436   3.704   3.287   5.768
    3TYR     BB  437   3.394   3.428   6.097
    3TYR    SC1  438   3.288   3.689   6.021
    3TYR    SC2  439   3.163   3.773   6.208
    3TYR    SC3  440   3.250   3.997   6.170
    1TYR     BB  441   7.744   3.839   1.894
    1TYR    SC1  442   8.014   3.950   1.786
    1TYR    SC2  443   7.927   4.039   1.580
    1TYR    SC3  444   8.075   4.231   1.597
    2PRO     BB  445   7.605   4.170   1.777
    2PRO    SC1  446   7.573   4.146   1.944
    3TYR     BB  447   7.486   4.290   1.502
    3TYR    SC1  448   7.708   4.456   1.413
    3TYR    SC2  449   7.642   4.559   1.205
    3TYR    SC3  450   7.747   4.768   1.271
    1TYR     BB  451   3.270   1.864   3.416
    1TYR    SC1  452   3.316   2.115   3.238
    1TYR    SC2  453   3.506   2.201   3.358
    1TYR    SC3  454   3.610   2.271   3.150
    2PRO     BB  455   3.645   1.828   3.395
    2PRO    SC1  456   3.566   1.685   3.339
    3TYR     BB  457   3.900   1.940   3.557
    3TYR    SC1  458   4.002   2.140   3.371
    3TYR    SC2  459   4.197   2.239   3.471
    3TYR    SC3  460   4.310   2.242   3.256
    1TYR     BB  461   2.006   4.560   5.849
    1TYR    SC1  462   1.766   4.511   5.657
    1TYR    SC2  463   1.751   4.735   5.571
    1TYR    SC3  464   1.698   4.650   5.349
    2PRO     BB  465   2.150   4.751   5.557
    2PRO    SC1  466   2.257   4.626   5.609
    3TYR     BB  467   2.133   5.052   5.442
    3TYR    SC1  468   1.958   5.015   5.212
    3TYR    SC2  469   1.930   5.230   5.108
    3TYR    SC3  470   1.943   5.128   4.888
    1TYR     BB  471   1.225   7.024   4.580
    1TYR    SC1  472   1.223   7.310   4.456
    1TYR    SC2  473   1.221   7.240   4.225
    1TYR    SC3  474   1.071   7.422   4.169
    2PRO     BB  475   0.963   6.950   4.320
    2PRO    SC1  476   0.904   6.916   4.478
    3TYR     BB  477   0.958   6.855   4.012
    3TYR    SC1  478   0.890   7.104   3.876
    3TYR    SC2  479   0.881   7.058   3.640
    3TYR    SC3  480   0.686   7.201   3.617
    1TYR     BB  481   6.418  -0.165   0.024
    1TYR    SC1  482   6.335  -0.313   0.285
    1TYR    SC2  483   6.472  -0.184   0.436
    1TYR    SC3  484   6.297  -0.189   0.604
    2PRO     BB  485   6.377   0.146   0.232
    2PRO    SC1  486   6.278   0.153   0.091
    3TYR     BB  487   6.560   0.321   0.432
    3TYR    SC1  488   6.450   0.245   0.691
    3TYR    SC2  489   6.573   0.365   0.860
    3TYR    SC3  490   6.369   0.404   0.985
    1TYR     BB  491   6.968   4.680   3.725
    1TYR    SC1  492   7.210   4.824   3.593
    1TYR    SC2  493   7.318   4.892   3.797
    1TYR    SC3  494   7.536   4.848   3.701
    2PRO     BB  495   7.228   4.537   3.958
    2PRO    SC1  496   7.139   4.412   3.880
    3TYR     BB  497   7.371   4.626   4.232
    3TYR    SC1  498   7.634   4.706   4.136
    3TYR    SC2  499   7.763   4.778   4.327
    3TYR    SC3  500   7.961   4.669   4.239
    1TYR     BB  501   6.207   7.129   4.963
    1TYR    SC1  502   6.010   6.890   4.934
    1TYR    SC2  503   5.846   7.005   4.800
    1TYR    SC3  504   5.808   6.803   4.669
    2PRO     BB  505   6.141   7.179   4.595
    2PRO    SC1  506   6.310   7.159   4.625
    3TYR     BB  507   5.924   7.333   4.414
    3TYR    SC1  508   5.761   7.111   4.319
    3TYR    SC2  509   5.587   7.203   4.179
    3TYR    SC3  510   5.611   7.019   4.023
    1TYR     BB  511   1.782   0.292   7.378
    1TYR    SC1  512   1.694   0.074   7.174
    1TYR    SC2  513   1.534   0.209   7.055
    1TYR    SC3  514   1.599   0.108   6.844
    2PRO     BB  515   1.785   0.519   7.077
    2PRO    SC1  516   1.939   0.518   7.155
    3TYR     BB  517   1.572   0.702   6.918
    3TYR    SC1  518   1.524   0.540   6.681
    3TYR    SC2  519   1.364   0.659   6.544
    3TYR    SC3  520   1.485   0.596   6.343
    1TYR     BB  521   0.490   2.803   4.278
    1TYR    SC1  522   0.432   2.542   4.119
    1TYR    SC2  523   0.338   2.647   3.924
    1TYR    SC3  524   0.446   2.484   3.780
    2PRO     BB  525   0.618   2.931   3.948
    2PRO    SC1  526   0.739   2.943   4.070
    3TYR     BB  527   0.493   3.074   3.687
    3TYR    SC1  528   0.492   2.854   3.496
    3TYR    SC2  529   0.401   2.938   3.290
    3TYR    SC3  530   0.564   2.811   3.163
    1TYR     BB  531   4.675   5.238   6.457
    1TYR    SC1  532   4.537   5.509   6.525
    1TYR    SC2  533   4.339   5.474   6.392
    1TYR    SC3  534   4.203   5.581   6.562
    2PRO     BB  535   4.332   5.093   6.513
    2PRO    SC1  536   4.448   5.018   6.616
    3TYR     BB  537   4.066   5.043   6.337
    3TYR    SC1  538   3.892   5.255   6.435
    3TYR    SC2  539   3.683   5.238   6.316
    3TYR    SC3  540   3.560   5.287   6.519
    1TYR     BB  541   1.317   0.397   1.284
    1TYR    SC1  542   1.391   0.322   0.991
    1TYR    SC2  543   1.513   0.523   0.939
    1TYR    SC3  544   1.674   0.396   0.810
    2PRO     BB  545   1.676   0.512   1.304
    2PRO    SC1  546   1.641   0.395   1.426
    3TYR     BB  547   1.840   0.781   1.238
    3TYR    SC1  548   1.975   0.706   0.991
    3TYR    SC2  549   2.107   0.895   0.920
    3TYR    SC3  550   2.288   0.748   0.853
    1TYR     BB  551   3.442   2.674   0.378
    1TYR    SC1  552   3.302   2.433   0.516
    1TYR    SC2  553   3.084   2.532   0.534
    1TYR    SC3  554   2.979   2.318   0.484
    2PRO     BB  555   3.129   2.685   0.167
    2PRO    SC1  556   3.270   2.670   0.069
    3TYR     BB  557   2.837   2.819   0.188
    3TYR    SC1  558   2.673   2.588   0.255
    3TYR    SC2  559   2.445   2.665   0.276
    3TYR    SC3  560   2.365   2.465   0.164
    1TYR     BB  561   0.879   4.407   7.976
    1TYR    SC1  562   0.809   4.356   7.678
    1TYR    SC2  563   1.020   4.257   7.615
    1TYR    SC3  564   0.907   4.098   7.471
    2PRO     BB  565   1.025   4.060   7.963
    2PRO    SC1  566   0.906   4.072   8.087
    3TYR     BB  567   1.308   3.927   7.883
    3TYR    SC1  568   1.244   3.810   7.623
    3TYR    SC2  569   1.444   3.703   7.541
    3TYR    SC3  570   1.312   3.517   7.456
    1TYR     BB  571   8.122   0.850   1.245
    1TYR    SC1  572   7.824   0.885   1.327
    1TYR    SC2  573   7.815   0.702   1.483
    1TYR    SC3  574   7.672   0.831   1.631
    2PRO     BB  575   8.179   0.804   1.615
    2PRO    SC1  576   8.275   0.933   1.553
    3TYR     BB  577   8.171   0.560   1.825
    3TYR    SC1  578   7.920   0.613   1.964
    3TYR    SC2  579   7.891   0.440   2.129
    3TYR    SC3  580   7.806   0.602   2.289
    1TYR     BB  581   6.919   1.818   3.079
    1TYR    SC1  582   7.023   2.107   3.128
    1TYR    SC2  583   6.834   2.184   3.256
    1TYR    SC3  584   6.981   2.312   3.401
    2PRO     BB  585   6.824   1.831   3.443
    2PRO    SC1  586   6.928   1.697   3.412
    3TYR     BB  587   6.570   1.931   3.616
    3TYR    SC1  588   6.673   2.179   3.729
    3TYR    SC2  589   6.498   2.274   3.865
    3TYR    SC3  590   6.661   2.340   4.033
    1TYR     BB  591   6.030   3.362   0.945
    1TYR    SC1  592   6.079   3.574   1.167
    1TYR    SC2  593   5.974   3.758   1.054
    1TYR    SC3  594   5.882   3.839   1.264
    2PRO     BB  595   5.685   3.512   0.930
    2PRO    SC1  596   5.677   3.343   0.961
    3TYR     BB  597   5.542   3.757   0.778
    3TYR    SC1  598   5.517   3.952   0.994
    3TYR    SC2  599   5.411   4.148   0.903
    3TYR    SC3  600   5.279   4.174   1.105
    1TYR     BB  601   3.170   1.086   1.499
    1TYR    SC1  602   3.294   0.834   1.632
    1TYR    SC2  603   3.169   0.845   1.837
    1TYR    SC3  604   3.149   0.603   1.842
    2PRO     BB  605   2.844   0.947   1.627
    2PRO    SC1  606   2.838   0.970   1.457
    3TYR     BB  607   2.673   0.962   1.900
    3TYR    SC1  608   2.724   0.699   2.015
    3TYR    SC2  609   2.605   0.687   2.224
    3TYR    SC3  610   2.542   0.457   2.178
    1TYR     BB  611   5.632   4.154   7.068
    1TYR    SC1  612   5.938   4.184   7.112
    1TYR    SC2  613   5.966   3.991   7.253
    1TYR    SC3  614   6.180   3.941   7.148
    2PRO     BB  615   5.713   3.790   7.017
    2PRO    SC1  616   5.631   3.854   6.880
    3TYR     BB  617   5.749   3.529   7.203
    3TYR    SC1  618   6.038   3.498   7.204
    3TYR    SC2  619   6.090   3.306   7.340
    3TYR    SC3  620   6.263   3.239   7.183
    1TYR     BB  621   5.855   3.460   4.734
    1TYR    SC1  622   5.638   3.324   4.911
    1TYR    SC2  623   5.448   3.438   4.816
    1TYR    SC3  624   5.315   3.236   4.831
    2PRO     BB  625   5.612   3.398   4.453
    2PRO    SC1  626   5.764   3.326   4.419
    3TYR     BB  627   5.359   3.551   4.324
    3TYR    SC1  628   5.138   3.393   4.427
    3TYR    SC2  629   4.934   3.490   4.343
    3TYR    SC3  630   4.840   3.269   4.306
    1TYR     BB  631   3.194   8.001   0.915
    1TYR    SC1  632   3.089   7.729   1.022
    1TYR    SC2  633   2.856   7.790   1.033
    1TYR    SC3  634   2.791   7.568   0.959
    2PRO     BB  635   2.896   7.983   0.685
    2PRO    SC1  636   3.043   7.998   0.595
    3TYR     BB  637   2.585   8.067   0.697
    3TYR    SC1  638   2.458   7.807   0.732
    3TYR    SC2  639   2.220   7.844   0.744
    3TYR    SC3  640   2.179   7.646   0.610
    1TYR     BB  641   1.891   3.084   1.421
    1TYR    SC1  642   1.935   2.804   1.549
    1TYR    SC2  643   2.038   2.881   1.752
    1TYR    SC3  644   1.923   2.710   1.880
    2PRO     BB  645   1.775   3.182   1.766
    2PRO    SC1  646   1.653   3.214   1.648
    3TYR     BB  647   1.912   3.287   2.038
    3TYR    SC1  648   1.903   3.048   2.203
    3TYR    SC2  649   2.001   3.103   2.416
    3TYR    SC3  650   1.832   2.972   2.532
    1TYR     BB  651   3.039   8.032   4.147
    1TYR    SC1  652   2.783   8.097   4.311
    1TYR    SC2  653   2.819   7.936   4.486
    1TYR    SC3  654   2.733   8.092   4.651
    2PRO     BB  655   3.208   8.028   4.484
    2PRO    SC1  656   3.284   8.141   4.378
    3TYR     BB  657   3.259   7.813   4.719
    3TYR    SC1  658   3.066   7.900   4.919
    3TYR    SC2  659   3.085   7.751   5.107
    3TYR    SC3  660   3.059   7.938   5.261
    1TYR     BB  661   3.546   5.663   5.924
    1TYR    SC1  662   3.550   5.964   5.844
    1TYR    SC2  663   3.323   5.976   5.766
    1TYR    SC3  664   3.299   6.198   5.861
    2PRO     BB  665   3.209   5.746   6.072
    2PRO    SC1  666   3.314   5.678   6.191
    3TYR     BB  667   2.904   5.761   5.970
    3TYR    SC1  668   2.864   6.049   5.951
    3TYR    SC2  669   2.639   6.086   5.874
    3TYR    SC3  670   2.614   6.273   6.027
    1TYR     BB  671   5.629   0.972   6.340
    1TYR    SC1  672   5.611   1.117   6.615
    1TYR    SC2  673   5.675   0.929   6.751
    1TYR    SC3  674   5.802   1.075   6.898
    2PRO     BB  675   5.951   0.832   6.478
    2PRO    SC1  676   5.978   0.915   6.329
    3TYR     BB  677   6.039   0.579   6.658
    3TYR    SC1  678   6.093   0.708   6.914
    3TYR    SC2  679   6.161   0.536   7.068
    3TYR    SC3  680   6.330   0.683   7.161
    1TYR     BB  681   5.100   5.443   5.768
    1TYR    SC1  682   4.896   5.372   5.544
    1TYR    SC2  683   5.029   5.450   5.359
    1TYR    SC3  684   4.953   5.264   5.222
    2PRO     BB  685   5.354   5.295   5.532
    2PRO    SC1  686   5.358   5.215   5.684
    3TYR     BB  687   5.534   5.398   5.285
    3TYR    SC1  688   5.392   5.283   5.058
    3TYR    SC2  689   5.509   5.348   4.858
    3TYR    SC3  690   5.475   5.127   4.763
    1TYR     BB  691   3.293   5.047   0.643
    1TYR    SC1  692   3.258   4.932   0.929
    1TYR    SC2  693   3.456   5.030   1.024
    1TYR    SC3  694   3.340   5.071   1.233
    2PRO     BB  695   3.380   5.366   0.823
    2PRO    SC1  696   3.249   5.391   0.714
    3TYR     BB  697   3.645   5.500   0.948
    3TYR    SC1  698   3.600   5.460   1.233
    3TYR    SC2  699   3.789   5.554   1.350
    3TYR    SC3  700   3.642   5.643   1.522
    1TYR     BB  701   5.073   1.355   1.766
    1TYR    SC1  702   4.983   1.643   1.841
    1TYR    SC2  703   4.879   1.588   2.051
    1TYR    SC3  704   4.963   1.793   2.150
    2PRO     BB  705   5.179   1.335   2.128
    2PRO    SC1  706   5.312   1.301   2.022
    3TYR     BB  707   5.042   1.259   2.409
    3TYR    SC1  708   5.009   1.522   2.529
    3TYR    SC2  709   4.906   1.491   2.745
    3TYR    SC3  710   5.048   1.663   2.841
    1TYR     BB  711   7.211   5.988   0.562
    1TYR    SC1  712   6.968   5.801   0.508
    1TYR    SC2  713   6.799   5.947   0.597
    1TYR    SC3  714   6.645   5.881   0.422
    2PRO     BB  715   6.985   6.257   0.426
    2PRO    SC1  716   7.132   6.249   0.337
    3TYR     BB  717   6.760   6.456   0.544
    3TYR    SC1  718   6.516   6.331   0.445
    3TYR    SC2  719   6.330   6.463   0.522
    3TYR    SC3  720   6.218   6.435   0.308
    1TYR     BB  721   0.844   5.595   0.956
    1TYR    SC1  722   0.577   5.727   0.865
    1TYR    SC2  723   0.654   5.803   0.650
    1TYR    SC3  724   0.439   5.749   0.551
    2PRO     BB  725   0.851   5.459   0.604
    2PRO    SC1  726   0.859   5.331   0.720
    3TYR     BB  727   0.956   5.558   0.316
    3TYR    SC1  728   0.705   5.627   0.185
    3TYR    SC2  729   0.758   5.706  -0.036
    3TYR    SC3  730   0.566   5.589  -0.127
    1TYR     BB  731   7.072   3.926   8.485
    1TYR    SC1  732   6.812   3.804   8.366
    1TYR    SC2  733   6.834   3.899   8.146
    1TYR    SC3  734   6.747   3.696   8.046
    2PRO     BB  735   7.226   3.822   8.157
    2PRO    SC1  736   7.310   3.751   8.290
    3TYR     BB  737   7.258   3.948   7.862
    3TYR    SC1  738   7.060   3.796   7.713
    3TYR    SC2  739   7.065   3.875   7.485
    3TYR    SC3  740   7.039   3.647   7.403
    1TYR     BB  741   1.456   3.491   4.017
    1TYR    SC1  742   1.660   3.328   4.187
    1TYR    SC2  743   1.833   3.496   4.193
    1TYR    SC3  744   1.886   3.437   4.423
    2PRO     BB  745   1.552   3.776   4.246
    2PRO    SC1  746   1.382   3.748   4.250
    3TYR     BB  747   1.781   4.002   4.255
    3TYR    SC1  748   1.956   3.898   4.463
    3TYR    SC2  749   2.139   4.053   4.488
    3TYR    SC3  750   2.133   4.025   4.730
    1TYR     BB  751   6.686   5.986   6.028
    1TYR    SC1  752   6.385   5.920   5.986
    1TYR    SC2  753   6.385   5.709   6.100
    1TYR    SC3  754   6.165   5.755   6.192
    2PRO     BB  755   6.623   5.866   6.380
    2PRO    SC1  756   6.686   6.026   6.380
    3TYR     BB  757   6.625   5.584   6.536
    3TYR    SC1  758   6.340   5.533   6.566
    3TYR    SC2  759   6.315   5.323   6.682
    3TYR    SC3  760   6.131   5.413   6.812
    1TYR     BB  761   7.609   5.994   4.251
    1TYR    SC1  762   7.734   6.089   3.982
    1TYR    SC2  763   7.708   6.326   4.020
    1TYR    SC3  764   7.922   6.369   3.914
    2PRO     BB  765   7.817   6.271   4.401
    2PRO    SC1  766   7.854   6.120   4.474
    3TYR     BB  767   7.783   6.587   4.455
    3TYR    SC1  768   7.952   6.699   4.245
    3TYR    SC2  769   7.943   6.939   4.265
    3TYR    SC3  770   8.181   6.955   4.217
    1TYR     BB  771   1.237   1.843   2.039
    1TYR    SC1  772   0.967   1.971   1.949
    1TYR    SC2  773   1.057   2.101   1.768
    1TYR    SC3  774   0.859   2.055   1.634
    2PRO     BB  775   1.293   1.794   1.670
    2PRO    SC1  776   1.303   1.644   1.754
    3TYR     BB  777   1.414   1.966   1.426
    3TYR    SC1  778   1.172   2.044   1.284
    3TYR    SC2  779   1.238   2.176   1.094
    3TYR    SC3  780   1.069   2.068   0.957
    1TYR     BB  781   0.970   4.591   2.704
    1TYR    SC1  782   0.755   4.640   2.924
    1TYR    SC2  783   0.840   4.480   3.083
    1TYR    SC3  784   0.786   4.630   3.266
    2PRO     BB  785   1.212   4.596   2.993
    2PRO    SC1  786   1.254   4.714   2.875
    3TYR     BB  787   1.328   4.382   3.205
    3TYR    SC1  788   1.182   4.456   3.446
    3TYR    SC2  789   1.253   4.308   3.622
    3TYR    SC3  790   1.252   4.491   3.781
    1TYR     BB  791   6.741   4.748   4.862
    1TYR    SC1  792   6.573   4.938   4.682
    1TYR    SC2  793   6.626   5.142   4.799
    1TYR    SC3  794   6.636   5.263   4.588
    2PRO     BB  795   7.004   5.016   4.836
    2PRO    SC1  796   7.065   4.865   4.781
    3TYR     BB  797   7.078   5.288   4.992
    3TYR    SC1  798   6.985   5.490   4.804
    3TYR    SC2  799   7.030   5.706   4.900
    3TYR    SC3  800   7.098   5.792   4.683
    1TYR     BB  801   1.761   1.433   2.610
    1TYR    SC1  802   1.749   1.649   2.387
    1TYR    SC2  803   1.804   1.837   2.527
    1TYR    SC3  804   1.937   1.935   2.349
    2PRO     BB  805   2.075   1.613   2.715
    2PRO    SC1  806   2.107   1.446   2.684
    3TYR     BB  807   2.150   1.863   2.904
    3TYR    SC1  808   2.210   2.068   2.705
    3TYR    SC2  809   2.269   2.269   2.824
    3TYR    SC3  810   2.445   2.316   2.663
    1TYR     BB  811   4.816   0.623   7.498
    1TYR    SC1  812   4.552   0.555   7.348
    1TYR    SC2  813   4.651   0.521   7.131
    1TYR    SC3  814   4.498   0.337   7.088
    2PRO     BB  815   4.956   0.331   7.306
    2PRO    SC1  816   4.977   0.309   7.475
    3TYR     BB  817   5.091   0.284   7.017
    3TYR    SC1  818   4.872   0.155   6.873
    3TYR    SC2  819   4.950   0.109   6.650
    3TYR    SC3  820   4.837  -0.107   6.652
    1TYR     BB  821   2.914   0.438   6.417
    1TYR    SC1  822   3.000   0.722   6.509
    1TYR    SC2  823   2.909   0.709   6.732
    1TYR    SC3  824   3.099   0.831   6.821
    2PRO     BB  825   3.036   0.331   6.757
    2PRO    SC1  826   3.117   0.244   6.633
    3TYR     BB  827   2.914   0.311   7.055
    3TYR    SC1  828   3.040   0.540   7.184
    3TYR    SC2  829   2.962   0.547   7.412
    3TYR    SC3  830   3.184   0.609   7.488
    1TYR     BB  831   1.345   2.623   4.274
    1TYR    SC1  832   1.538   2.804   4.437
    1TYR    SC2  833   1.574   2.650   4.619
    1TYR    SC3  834   1.807   2.716   4.633
    2PRO     BB  835   1.591   2.350   4.356
    2PRO    SC1  836   1.570   2.364   4.186
    3TYR     BB  837   1.639   2.142   4.598
    3TYR    SC1  838   1.868   2.262   4.732
    3TYR    SC2  839   1.923   2.123   4.920
    3TYR    SC3  840   2.160   2.153   4.877
    1TYR     BB  841   4.210   2.556   4.885
    1TYR    SC1  842   4.506   2.484   4.822
    1TYR    SC2  843   4.460   2.297   4.678
    1TYR    SC3  844   4.645   2.360   4.533
    2PRO     BB  845   4.158   2.503   4.515
    2PRO    SC1  846   4.108   2.661   4.562
    3TYR     BB  847   4.095   2.255   4.320
    3TYR    SC1  848   4.355   2.211   4.197
    3TYR    SC2  849   4.332   2.026   4.044
    3TYR    SC3  850   4.474   2.138   3.882
    1TYR     BB  851  -0.168   7.053   7.222
    1TYR    SC1  852   0.034   7.287   7.256
    1TYR    SC2  853   0.227   7.172   7.169
    1TYR    SC3  854   0.303   7.375   7.060
    2PRO     BB  855  -0.003   7.010   6.885
    2PRO    SC1  856  -0.173   7.033   6.869
    3TYR     BB  857   0.253   6.854   6.768
    3TYR    SC1  858   0.440   7.073   6.728
    3TYR    SC2  859   0.643   6.980   6.639
    3TYR    SC3  860   0.668   7.168   6.488
    1TYR     BB  861   6.817   4.345   6.508
    1TYR    SC1  862   6.995   4.419   6.264
    1TYR    SC2  863   7.097   4.203   6.237
    1TYR    SC3  864   7.089   4.226   5.995
    2PRO     BB  865   6.744   4.032   6.312
    2PRO    SC1  866   6.598   4.115   6.352
    3TYR     BB  867   6.878   3.741   6.276
    3TYR    SC1  868   7.000   3.767   6.013
    3TYR    SC2  869   7.109   3.558   5.963
    3TYR    SC3  870   7.034   3.571   5.732
    1TYR     BB  871   3.399   5.894   4.713
    1TYR    SC1  872   3.120   5.852   4.845
    1TYR    SC2  873   3.149   5.619   4.900
    1TYR    SC3  874   3.031   5.651   5.110
    2PRO     BB  875   3.526   5.696   5.008
    2PRO    SC1  876   3.604   5.849   4.998
    3TYR     BB  877   3.567   5.385   5.081
    3TYR    SC1  878   3.345   5.340   5.265
    3TYR    SC2  879   3.355   5.110   5.335
    3TYR    SC3  880   3.295   5.173   5.561
    1TYR     BB  881   7.711   4.553   7.366
    1TYR    SC1  882   7.934   4.654   7.558
    1TYR    SC2  883   7.948   4.878   7.472
    1TYR    SC3  884   7.981   4.966   7.696
    2PRO     BB  885   7.550   4.886   7.441
    2PRO    SC1  886   7.443   4.755   7.480
    3TYR     BB  887   7.565   5.186   7.325
    3TYR    SC1  888   7.721   5.319   7.532
    3TYR    SC2  889   7.746   5.550   7.467
    3TYR    SC3  890   7.713   5.622   7.696
    1TYR     BB  891   4.725   4.578   0.457
    1TYR    SC1  892   4.977   4.575   0.640
    1TYR    SC2  893   5.085   4.767   0.544
    1TYR    SC3  894   5.161   4.837   0.764
    2PRO     BB  895   4.729   4.949   0.522
    2PRO    SC1  896   4.578   4.880   0.568
    3TYR     BB  897   4.871   5.209   0.394
    3TYR    SC1  898   5.077   5.265   0.592
    3TYR    SC2  899   5.199   5.458   0.516
    3TYR    SC3  900   5.210   5.544   0.743
    1TYR     BB  901   3.520   4.405   2.720
    1TYR    SC1  902   3.692   4.529   2.949
    1TYR    SC2  903   3.718   4.747   2.851
    1TYR    SC3  904   3.698   4.851   3.069
    2PRO     BB  905   3.337   4.735   2.732
    2PRO    SC1  906   3.229   4.603   2.756
    3TYR     BB  907   3.369   5.026   2.600
    3TYR    SC1  908   3.471   5.180   2.825
    3TYR    SC2  909   3.504   5.407   2.749
    3TYR    SC3  910   3.419   5.493   2.960
    1TYR     BB  911   3.838   1.061   3.574
    1TYR    SC1  912   3.690   1.173   3.824
    1TYR    SC2  913   3.622   0.961   3.915
    1TYR    SC3  914   3.664   1.041   4.140
    2PRO     BB  915   3.980   0.811   3.817
    2PRO    SC1  916   4.106   0.896   3.736
    3TYR     BB  917   3.893   0.525   3.938
    3TYR    SC1  918   3.809   0.600   4.207
    3TYR    SC2  919   3.737   0.400   4.319
    3TYR    SC3  920   3.843   0.474   4.525
    1TYR     BB  921   2.146   4.305   7.170
    1TYR    SC1  922   2.198   4.020   7.285
    1TYR    SC2  923   1.979   3.931   7.242
    1TYR    SC3  924   2.074   3.716   7.181
    2PRO     BB  925   1.976   4.120   6.889
    2PRO    SC1  926   2.101   4.222   6.829
    3TYR     BB  927   1.682   4.002   6.829
    3TYR    SC1  928   1.726   3.717   6.868
    3TYR    SC2  929   1.516   3.605   6.828
    3TYR    SC3  930   1.630   3.425   6.712
    1TYR     BB  931   0.201   5.938   1.967
    1TYR    SC1  932   0.088   5.846   2.242
    1TYR    SC2  933   0.211   5.639   2.255
    1TYR    SC3  934   0.243   5.670   2.494
    2PRO     BB  935   0.532   5.827   2.108
    2PRO    SC1  936   0.538   5.992   2.059
    3TYR     BB  937   0.700   5.552   2.125
    3TYR    SC1  938   0.661   5.478   2.404
    3TYR    SC2  939   0.779   5.272   2.442
    3TYR    SC3  940   0.853   5.351   2.659
    1TYR     BB  941   0.659   4.928   4.432
    1TYR    SC1  942   0.819   5.181   4.347
    1TYR    SC2  943   0.660   5.343   4.426
    1TYR    SC3  944   0.840   5.488   4.501
    2PRO     BB  945   0.600   5.118   4.752
    2PRO    SC1  946   0.674   4.966   4.783
    3TYR     BB  947   0.386   5.334   4.860
    3TYR    SC1  948   0.543   5.579   4.851
    3TYR    SC2  949   0.402   5.758   4.929
    3TYR    SC3  950   0.588   5.856   5.051
    1TYR     BB  951   0.665   0.040   3.185
    1TYR    SC1  952   0.924   0.199   3.119
    1TYR    SC2  953   0.921   0.161   2.881
    1TYR    SC3  954   1.002   0.387   2.842
    2PRO     BB  955   0.526   0.217   2.883
    2PRO    SC1  956   0.429   0.247   3.022
    3TYR     BB  957   0.518   0.167   2.564
    3TYR    SC1  958   0.715   0.360   2.472
    3TYR    SC2  959   0.728   0.342   2.232
    3TYR    SC3  960   0.745   0.583   2.211
    1TYR     BB  961   2.691   4.447   0.076
    1TYR    SC1  962   2.822   4.166   0.094
    1TYR    SC2  963   2.909   4.190   0.317
    1TYR    SC3  964   2.857   3.958   0.366
    2PRO     BB  965   2.571   4.373   0.425
    2PRO    SC1  966   2.439   4.409   0.321
    3TYR     BB  967   2.685   4.406   0.725
    3TYR    SC1  968   2.756   4.131   0.790
    3TYR    SC2  969   2.846   4.130   1.013
    3TYR    SC3  970   2.729   3.923   1.062
    1TYR     BB  971   4.435   3.519   8.357
    1TYR    SC1  972   4.647   3.354   8.201
    1TYR    SC2  973   4.607   3.452   7.985
    1TYR    SC3  974   4.844   3.447   7.935
    2PRO     BB  975   4.570   3.810   8.160
    2PRO    SC1  976   4.580   3.840   8.329
    3TYR     BB  977   4.516   3.944   7.872
    3TYR    SC1  978   4.748   3.853   7.721
    3TYR    SC2  979   4.729   3.941   7.498
    3TYR    SC3  980   4.968   3.987   7.493
    1TYR     BB  981   2.321   3.322   7.388
    1TYR    SC1  982   2.450   3.081   7.536
    1TYR    SC2  983   2.531   3.205   7.726
    1TYR    SC3  984   2.476   3.021   7.874
    2PRO     BB  985   2.191   3.415   7.729
    2PRO    SC1  986   2.062   3.398   7.617
    3TYR     BB  987   2.298   3.582   7.983
    3TYR    SC1  988   2.366   3.368   8.168
    3TYR    SC2  989   2.450   3.470   8.370
    3TYR    SC3  990   2.331   3.308   8.506
    1TYR     BB  991   0.853   3.266   1.248
    1TYR    SC1  992   0.930   3.517   1.414
    1TYR    SC2  993   0.863   3.431   1.629
    1TYR    SC3  994   1.053   3.538   1.735
    2PRO     BB  995   1.018   3.076   1.529
    2PRO    SC1  996   1.090   3.037   1.377
    3TYR     BB  997   0.930   2.958   1.815
    3TYR    SC1  998   1.052   3.150   1.997
    3TYR    SC2  999   0.999   3.082   2.221
    3TYR    SC3 1000   1.223   3.140   2.295
    4W        W 1001   0.349   1.633   2.100
    5W        W 1002   4.010   5.867   1.494
    6W        W 1003   5.106   7.621   1.686
    7W        W 1004   3.772   4.299   0.403
    8W        W 1005   5.683   0.072   4.002
    9W        W 1006   3.484   7.360   2.147
   10W        W 1007   2.537   3.319   3.106
   11W        W 1008   3.102   5.951   3.455
   12W        W 1009   3.635   6.731   2.684
   13W        W 1010   3.682   2.669   5.460
   14W        W 1011   6.617   2.508   3.357
   15W        W 1012   0.928   6.753   6.162
   16W        W 1013   2.972   7.428   4.929
   17W        W 1014   7.158   3.321   3.628
   18W        W 1015   6.117   6.459   3.240
   19W        W 1016   7.256   3.126   1.905
   20W        W 1017   4.479   7.132   6.676
   21W        W 1018   3.548   2.037   0.913
   22W        W 1019   4.614   4.267   3.949
   23W        W 1020   4.204   3.886   1.026
   24W        W 1021   3.255   5.763   3.879
   25W        W 1022   2.552   6.182   3.404
   26W        W 1023   5.594   4.501   0.154
   27W        W 1024   1.975   6.238   5.081
   28W        W 1025   5.364   2.299   5.526
   29W        W 1026   0.429   6.932   3.776
   30W        W 1027   1.095   7.587   5.519
   31W        W 1028   7.929   1.101   3.258
   32W        W 1029   6.949   4.572   2.275
   33W        W 1030   7.654   6.841   5.972
   34W        W 1031   3.181   1.827   1.211
   35W        W 1032   4.354   0.291   4.467
   36W        W 1033   3.860   6.313   1.114
   37W        W 1034   3.430   4.024   2.538
   38W        W 1035   3.545   3.352   0.603
   39W        W 1036   2.630   7.135   2.585
   40W        W 1037   1.440   7.637   5.136
   41W        W 1038   5.533   0.490   3.665
   42W        W 1039   7.517   7.177   2.175
   43W        W 1040   2.251   0.633   4.073
   44W        W 1041   3.736   4.560   6.753
   45W        W 1042   7.851   2.797   3.902
   46W        W 1043   4.599   2.116   6.133
   47W        W 1044   5.681   4.462   4.970
   48W        W 1045   5.676   1.433   2.966
   49W        W 1046   4.819   6.067   6.364
   50W        W 1047   0.606   2.177   6.213
   51W        W 1048   1.119   5.630   1.968
   52W        W 1049   3.481   0.246   1.393
   53W        W 1050   6.733   1.195   3.868
   54W        W 1051   1.407   0.692   3.619
   55W        W 1052   1.602   2.575   3.865
   56W        W 1053   3.987   7.321   3.032
   57W        W 1054   1.242   7.332   1.453
   58W        W 1055   1.855   6.457   3.898
   59W        W 1056   5.253   5.959   0.677
   60W        W 1057   4.050   5.464   2.603
   61W        W 1058   2.220   4.370   2.646
   62W        W 1059   6.449   1.641   4.888
   63W        W 1060   0.387   1.607   7.962
   64W        W 1061   1.261   6.947   0.428
   65W        W 1062   2.307   7.508   1.384
   66W        W 1063   6.442   3.540   3.828
   67W        W 1064   3.367   3.532   4.367
   68W        W 1065   3.230   4.191   0.394
   69W        W 1066   4.803   0.282   2.107
   70W        W 1067   3.462   3.638   5.146
   71W        W 1068   6.619   6.519   2.671
   72W        W 1069   7.309   0.266   0.194
   73W        W 1070   6.292   0.807   0.486
   74W        W 1071   7.424   3.158   0.769
   75W        W 1072   5.880   5.100   7.157
   76W        W 1073   2.098   2.272   1.668
   77W        W 1074   6.438   4.924   7.950
   78W        W 1075   1.608   1.490   1.416
   79W        W 1076   0.024   0.654   7.928
   80W        W 1077   6.084   2.032   2.232
   81W        W 1078   5.349   6.095   3.993
   82W        W 1079   1.816   2.172   7.150
   83W        W 1080   5.173   2.658   1.706
   84W        W 1081   7.814   7.422   5.045
   85W        W 1082   0.819   0.266   0.956
   86W        W 1083   0.750   1.601   4.399
   87W        W 1084   4.102   4.177   4.143
   88W        W 1085   0.259   7.046   0.824
   89W        W 1086   5.650   7.086   2.695
   90W        W 1087   6.056   5.766   5.520
   91W        W 1088   5.269   3.839   4.784
   92W        W 1089   7.915   3.693   5.877
   93W        W 1090   5.241   5.224   4.271
   94W        W 1091   2.032   0.198   0.976
   95W        W 1092   5.922   4.214   1.251
   96W        W 1093   2.383   2.228   2.244
   97W        W 1094   6.591   0.284   2.179
   98W        W 1095   0.546   4.305   3.982
   99W        W 1096   2.239   4.351   6.496
  100W        W 1097   6.496   5.044   1.240
  101W        W 1098   0.275   5.572   1.494
  102W        W 1099   7.405   3.890   1.145
  103W        W 1100   3.515   4.667   4.942
  104W        W 1101   0.394   3.751   3.247
  105W        W 1102   6.165   6.953   1.111
  106W        W 1103   2.626   4.308   5.785
  107W        W 1104   7.728   0.116   7.149
  108W        W 1105   4.011   0.806   7.564
  109W        W 1106   0.266   3.307   6.067
  110W        W 1107   5.281   7.196   5.432
  111W        W 1108   1.384   0.021   3.146
  112W        W 1109   0.853   7.400   1.141
  113W        W 1110   2.052   0.513   6.055
  114W        W 1111   5.561   0.088   6.628
  115W        W 1112   0.770   0.423   0.434
  116W        W 1113   2.607   7.020   6.969
  117W        W 1114   3.497   4.702   7.377
  118W        W 1115   2.997   4.317   1.667
  119W        W 1116   6.865   3.091   5.000
  120W        W 1117   3.990   4.941   5.149
  121W        W 1118   2.808   2.563   2.111
  122W        W 1119   4.883   2.466   7.680
  123W        W 1120   7.565   5.936   3.753
  124W        W 1121   4.262   7.625   6.543
  125W        W 1122   4.190   2.869   5.895
  126W        W 1123   7.276   5.425   2.118
  127W        W 1124   6.424   7.762   5.954
  128W        W 1125   2.332   2.230   1.251
  129W        W 1126   6.511   6.696   6.796
  130W        W 1127   4.572   5.569   2.581
  131W        W 1128   3.491   7.120   0.669
  132W        W 1129   3.830   6.778   4.809
  133W        W 1130   4.457   1.760   0.882
  134W        W 1131   1.068   1.917   5.980
  135W        W 1132   5.990   6.957   3.045
  136W        W 1133   2.615   3.713   1.550
  137W        W 1134   4.290   5.252   2.235
  138W        W 1135   2.818   0.909   4.513
  139W        W 1136   7.292   5.438   1.135
  140W        W 1137   4.900   2.969   1.462
  141W        W 1138   4.043   3.164   1.239
  142W        W 1139   3.631   5.801   0.429
  143W        W 1140   6.190   6.168   2.866
  144W        W 1141   0.307   4.777   6.065
  145W        W 1142   0.738   4.462   0.887
  146W        W 1143   0.049   0.664   0.817
  147W        W 1144   0.564   4.822   1.825
  148W        W 1145   3.710   7.655   3.799
  149W        W 1146   7.245   2.690   7.612
  150W        W 1147   4.274   3.116   2.080
  151W        W 1148   5.786   5.809   0.667
  152W        W 1149   0.612   1.030   7.085
  153W        W 1150   0.018   3.626   5.211
  154W        W 1151   7.280   1.793   5.959
  155W        W 1152   2.590   4.619   1.098
  156W        W 1153   0.505   5.802   6.467
  157W        W 1154   7.009   0.626   1.518
  158W        W 1155   0.325   6.638   1.251
  159W        W 1156   4.013   7.430   1.986
  160W        W 1157   6.418   3.571   0.115
  161W        W 1158   1.334   5.273   7.004
  162W        W 1159   5.923   0.865   0.157
  163W        W 1160   2.861   6.097   1.457
  164W        W 1161   2.192   5.954   2.613
  165W        W 1162   7.281   6.851   6.945
  166W        W 1163   3.774   1.376   4.335
  167W        W 1164   3.628   3.244   0.059
  168W        W 1165   3.678   3.672   0.904
  169W        W 1166   7.741   0.449   0.390
  170W        W 1167   1.469   6.671   5.382
  171W        W 1168   2.608   7.013   1.645
  172W        W 1169   6.769   5.310   0.874
  173W        W 1170   6.324   2.586   2.869
  174W        W 1171   7.235   4.956   6.943
  175W        W 1172   3.061   4.133   3.268
  176W        W 1173   7.603   5.308   4.528
  177W        W 1174   5.208   1.841   7.851
  178W        W 1175   4.545   3.698   6.398
  179W        W 1176   3.100   4.999   4.788
  180W        W 1177   2.201   3.642   2.003
  181W        W 1178   1.229   1.111   5.164
  182W        W 1179   2.950   7.365   2.256
  183W        W 1180   1.495   6.815   1.374
  184W        W 1181   0.800   1.759   3.437
  185W        W 1182   3.677   4.566   4.058
  186W        W 1183   3.060   1.377   1.006
  187W        W 1184   1.439   3.755   2.342
  188W        W 1185   6.225   4.142   0.710
  189W        W 1186   4.317   0.499   1.908
  190W        W 1187   2.654   3.201   0.720
  191W        W 1188   1.345   2.618   2.437
  192W        W 1189   0.190   2.337   5.226
  193W        W 1190   0.428   1.998   1.685
  194W        W 1191   5.736   6.311   2.823
  195W        W 1192   7.071   3.024   0.035
  196W        W 1193   3.485   4.051   4.160
  197W        W 1194   2.242   4.833   0.719
  198W        W 1195   2.980   2.287   7.647
  199W        W 1196   0.298   4.821   0.245
  200W        W 1197   3.681   2.474   1.733
  201W        W 1198   1.186   3.504   2.720
  202W        W 1199   2.179   5.064   7.217
  203W        W 1200   4.348   6.632   6.331
  204W        W 1201   6.524   1.236   6.236
  205W        W 1202   5.849   0.071   4.560
  206W        W 1203   7.408   6.166   4.959
  207W        W 1204   5.832   7.786   6.897
  208W        W 1205   0.698   6.968   1.731
  209W        W 1206   0.445   4.265   0.421
  210W        W 1207   2.499   6.618   5.107
  211W        W 1208   2.303   2.590   3.904
  212W        W 1209   0.907   7.773   0.823
  213W        W 1210   0.171   7.871   4.160
  214W        W 1211   0.862   3.544   6.816
  215W        W 1212   3.565   0.598   0.972
  216W        W 1213   7.556   5.320   3.163
  217W        W 1214   7.566   2.429   7.824
  218W        W 1215   3.559   1.697   5.985
  219W        W 1216   6.247   7.451   7.550
  220W        W 1217   1.325   5.009   3.067
  221W        W 1218   1.347   4.575   1.821
  222W        W 1219   0.626   1.066   4.390
  223W        W 1220   6.745   7.306   0.052
  224W        W 1221   6.058   3.145   0.224
  225W        W 1222   2.843   6.163   4.726
  226W        W 1223   1.682   5.368   1.491
  227W        W 1224   3.664   4.151   3.681
  228W        W 1225   2.867   2.023   2.130
  229W        W 1226   3.002   6.463   5.114
  230W        W 1227   7.317   7.251   0.731
  231W        W 1228   2.995   1.542   6.545
  232W        W 1229   5.791   3.202   6.485
  233W        W 1230   7.851   2.088   6.810
  234W        W 1231   1.278   4.324   5.223
  235W        W 1232   1.768   4.770   0.877
  236W        W 1233   4.800   6.174   2.801
  237W        W 1234   2.117   1.289   4.259
  238W        W 1235   0.995   2.283   0.036
  239W        W 1236   1.393   3.615   0.220
  240W        W 1237   2.434   5.388   4.233
  241W        W 1238   2.627   0.058   3.162
  242W        W 1239   6.572   3.457   4.822
  243W        W 1240   5.078   0.628   5.918
  244W        W 1241   2.301   7.087   5.753
  245W        W 1242   1.257   2.988   3.634
  246W        W 1243   1.958   2.741   4.232
  247W        W 1244   1.209   3.848   3.757
  248W        W 1245   1.171   5.164   0.345
  249W        W 1246   6.131   1.084   5.860
  250W        W 1247   6.559   4.297   3.034
  251W        W 1248   1.930   4.403   3.622
  252W        W 1249   1.653   2.963   7.762
  253W        W 1250   7.497   7.503   2.703
  254W        W 1251   0.845   0.004   1.893
  255W        W 1252   3.685   4.593   1.142
  256W        W 1253   2.903   4.153   4.253
  257W        W 1254   4.763   6.233   1.425
  258W        W 1255   1.429   1.504   5.383
  259W        W 1256   2.900   7.568   1.425
  260W        W 1257   1.814   4.223   0.816
  261W        W 1258   2.405   3.182   5.125
  262W        W 1259   2.301   1.283   3.573
  263W        W 1260   5.328   7.070   1.319
  264W        W 1261   5.922   4.946   4.852
  265W        W 1262   5.649   3.354   2.642
  266W        W 1263   3.528   6.732   6.577
  267W        W 1264   5.659   4.976   2.782
  268W        W 1265   7.641   5.803   3.075
  269W        W 1266   5.314   0.911   3.796
  270W        W 1267   5.943   4.663   6.881
  271W        W 1268   1.579   5.387   0.174
  272W        W 1269   0.395   0.226   3.592
  273W        W 1270   0.846   4.409   1.617
  274W        W 1271   7.103   5.197   3.607
  275W        W 1272   4.036   5.543   3.924
  276W        W 1273   4.218   6.098   3.471
  277W        W 1274   5.229   4.522   7.471
  278W        W 1275   1.375   3.430   1.164
  279W        W 1276   1.671   4.157   5.560
  280W        W 1277   7.044   7.394   2.370
  281W        W 1278   1.383   5.875   3.643
  282W        W 1279   5.422   3.768   7.884
  283W        W 1280   6.533   5.993   5.084
  284W        W 1281   3.025   4.593   7.244
  285W        W 1282   4.435   3.823   1.570
  286W        W 1283   2.804   4.582   3.176
  287W        W 1284   4.342   0.358   3.837
  288W        W 1285   3.775   3.827   1.334
  289W        W 1286   1.353   5.632   0.531
  290W        W 1287   2.563   2.588   2.961
  291W        W 1288   3.545   7.783   0.149
  292W        W 1289   5.677   6.043   5.750
  293W        W 1290   0.087   7.329   0.257
  294W        W 1291   1.748   1.354   0.943
  295W        W 1292   1.742   1.862   7.722
  296W        W 1293   0.114   5.180   2.143
  297W        W 1294   6.784   5.617   3.362
  298W        W 1295   2.731   4.151   6.901
  299W        W 1296   0.792   5.281   1.646
  300W        W 1297   4.647   7.242   4.709
  301W        W 1298   7.841   4.210   2.193
  302W        W 1299   4.992   0.675   6.877
  303W        W 1300   2.805   1.992   3.466
  304W        W 1301   6.557   0.721   1.160
  305W        W 1302   0.535   4.424   3.478
  306W        W 1303   1.979   2.104   6.411
  307W        W 1304   3.150   3.798   1.634
  308W        W 1305   4.588   6.991   0.788
  309W        W 1306   4.848   2.907   0.667
  310W        W 1307   6.939   4.095   0.989
  311W        W 1308   2.481   2.362   6.005
  312W        W 1309   0.632   3.857   7.284
  313W        W 1310   0.524   7.235   5.057
  314W        W 1311   6.416   6.936   7.574
  315W        W 1312   7.141   6.937   4.678
  316W        W 1313   4.635   4.146   6.694
  317W        W 1314   2.712   4.367   2.746
  318W        W 1315   5.425   3.722   2.390
  319W        W 1316   6.697   4.696   3.271
  320W        W 1317   5.016   5.636   1.548
  321W        W 1318   7.176   0.692   0.412
  322W        W 1319   2.148   5.449   2.572
  323W        W 1320   3.105   0.486   4.764
  324W        W 1321   4.110   0.556   3.277
  325W        W 1322   7.241   7.263   5.065
  326W        W 1323   6.899   1.528   7.660
  327W        W 1324   5.704   5.121   3.873
  328W        W 1325   2.932   0.801   0.370
  329W        W 1326   7.000   5.390   5.643
  330W        W 1327   2.837   5.883   7.389
  331W        W 1328   6.816   7.096   0.521
  332W        W 1329   4.889   1.207   6.940
  333W        W 1330   6.985   6.398   1.029
  334W        W 1331   1.004   5.143   2.218
  335W        W 1332   5.003   2.040   3.247
  336W        W 1333   3.324   5.958   2.361
  337W        W 1334   6.530   3.909   6.745
  338W        W 1335   2.133   6.592   5.974
  339W        W 1336   0.997   2.101   5.539
  340W        W 1337   1.283   4.261   2.374
  341W        W 1338   2.328   1.500   4.662
  342W        W 1339   6.342   1.268   6.690
  343W        W 1340   1.301   6.551   2.309
  344W        W 1341   0.777   1.492   0.827
  345W        W 1342   2.547   1.040   6.531
  346W        W 1343   3.382   1.587   2.877
  347W        W 1344   7.406   4.704   5.392
  348W        W 1345   2.768   3.633   7.114
  349W        W 1346   7.273   3.416   1.170
  350W        W 1347   6.681   7.391   7.347
  351W        W 1348   5.999   6.606   7.491
  352W        W 1349   1.627   0.717   2.411
  353W        W 1350   2.497   5.124   1.054
  354W        W 1351   5.570   2.933   1.837
  355W        W 1352   5.911   3.237   3.193
  356W        W 1353   7.768   3.432   4.713
  357W        W 1354   4.575   2.868   4.304
  358W        W 1355   0.994   4.818   1.317
  359W        W 1356   4.481   7.411   7.134
  360W        W 1357   2.646   5.930   6.748
  361W        W 1358   6.496   1.454   1.899
  362W        W 1359   5.963   5.419   1.042
  363W        W 1360   5.321   1.660   3.240
  364W        W 1361   6.156   3.098   3.705
  365W        W 1362   4.818   5.202   6.966
  366W        W 1363   4.323   2.836   0.552
  367W        W 1364   0.886   5.340   6.281
  368W        W 1365   4.573   1.429   2.257
  369W        W 1366   0.306   1.856   4.245
  370W        W 1367   7.326   2.967   4.964
  371W        W 1368   4.214   5.143   5.601
  372W        W 1369   5.152   1.309   0.457
  373W        W 1370   4.337   3.721   2.079
  374W        W 1371   2.805   0.133   5.663
  375W        W 1372   6.462   2.244   2.499
  376W        W 1373   2.413   5.702   5.113
  377W        W 1374   2.193   3.020   0.659
  378W        W 1375   3.073   3.541   4.860
  379W        W 1376   7.972   4.131   5.298
  380W        W 1377   7.456   5.787   1.422
  381W        W 1378   5.332   1.206   5.178
  382W        W 1379   5.119   3.721   2.772
  383W        W 1380   7.500   3.732   7.005
  384W        W 1381   4.362   4.703   3.421
  385W        W 1382   4.862   0.087   1.302
  386W        W 1383   1.016   1.658   3.062
  387W        W 1384   6.397   4.930   5.059
  388W        W 1385   4.367   0.630   6.638
  389W        W 1386   0.573   6.303   0.535
  390W        W 1387   1.921   5.198   1.019
  391W        W 1388   2.253   4.285   2.069
  392W        W 1389   7.573   0.969   0.532
  393W        W 1390   5.668   7.368   6.679
  394W        W 1391   1.603   4.785   3.774
  395W        W 1392   7.206   6.744   0.661
  396W        W 1393   3.928   5.259   4.369
  397W        W 1394   6.934   1.523   1.598
  398W        W 1395   6.265   3.953   2.164
  399W        W 1396   3.423   1.148   3.498
  400W        W 1397   0.241   3.307   1.316
  401W        W 1398   5.184   4.770   1.939
  402W        W 1399   1.752   2.802   3.190
  403W        W 1400   0.058   2.030   4.773
  404W        W 1401   2.681   4.176   7.386
  405W        W 1402   0.707   7.542   3.167
  406W        W 1403   2.601   7.345   6.069
  407W        W 1404   3.601   2.142   5.778
  408W        W 1405   0.563   6.180   0.034
  409W        W 1406   0.615   1.893   5.790
  410W        W 1407   3.021   6.917   3.273
  411W        W 1408   7.823   1.835   5.082
  412W        W 1409   6.666   3.551   7.171
  413W        W 1410   4.694   0.868   1.349
  414W        W 1411   3.953   1.633   4.995
  415W        W 1412   0.166   5.804   4.064
  416W        W 1413   3.541   1.808   0.365
  417W        W 1414   6.492   5.083   5.554
  418W        W 1415   0.225   6.259   7.246
  419W        W 1416   0.928   1.731   3.962
  420W        W 1417   7.648   1.659   2.228
  421W        W 1418   2.513   1.885   7.289
  422W        W 1419   2.496   1.095   3.080
  423W        W 1420   0.595   3.849   4.288
  424W        W 1421   6.042   1.134   3.217
  425W        W 1422   3.435   2.324   4.412
  426W        W 1423   4.477   3.244   7.145
  427W        W 1424   2.804   5.000   7.134
  428W        W 1425   5.180   3.234   1.965
  429W        W 1426   0.566   6.664   5.754
  430W        W 1427   3.374   6.613   3.132
  431W        W 1428   7.344   7.811   6.781
  432W        W 1429   0.731   3.864   1.693
  433W        W 1430   7.213   1.344   6.940
  434W        W 1431   0.737   2.109   1.248
  435W        W 1432   6.718   4.841   6.852
  436W        W 1433   1.687   4.864   5.992
  437W        W 1434   5.310   2.779   5.362
  438W        W 1435   2.167   5.026   7.731
  439W        W 1436   6.254   6.507   4.976
  440W        W 1437   0.761   1.889   0.418
  441W        W 1438   7.669   4.637   0.673
  442W        W 1439   6.150   4.390   4.087
  443W        W 1440   4.450   6.418   4.240
  444W        W 1441   4.368   6.712   2.046
  445W        W 1442   4.959   3.917   5.607
  446W        W 1443   0.909   0.784   7.552
  447W        W 1444   1.139   0.905   1.385
  448W        W 1445   3.135   4.586   7.784
  449W        W 1446   5.608   4.952   0.798
  450W        W 1447   1.467   5.549   4.738
  451W        W 1448   2.707   0.257   1.550
  452W        W 1449   7.276   2.491   0.280
  453W        W 1450   5.050   7.122   0.900
  454W        W 1451   1.652   5.783   5.755
  455W        W 1452   3.212   4.240   6.956
  456W        W 1453   6.014   3.418   5.597
  457W        W 1454   5.090   3.496   3.901
  458W        W 1455   2.204   1.607   1.031
  459W        W 1456   5.933   7.313   7.178
  460W        W 1457   0.423   3.184   2.254
  461W        W 1458   5.206   1.158   3.101
  462W        W 1459   0.360   0.848   7.618
  463W        W 1460   3.274   1.647   2.093
  464W        W 1461   1.492   2.380   7.774
  465W        W 1462   5.842   1.869   0.596
  466W        W 1463   6.914   3.731   3.693
  467W        W 1464   6.665   6.398   5.403
  468W        W 1465   4.297   1.466   3.131
  469W        W 1466   6.904   5.757   2.450
  470W        W 1467   0.487   6.888   0.434
  471W        W 1468   3.069   3.815   3.953
  472W        W 1469   2.757   4.564   4.506
  473W        W 1470   0.201   7.539   6.349
  474W        W 1471   1.409   7.471   2.213
  475W        W 1472   1.523   3.008   5.442
  476W        W 1473   2.859   1.881   4.174
  477W        W 1474   0.198   1.316   1.688
  478W        W 1475   6.652   7.714   3.202
  479W        W 1476   2.427   3.180   2.033
  480W        W 1477   6.265   7.347   0.304
  481W        W 1478   7.092   2.642   5.770
  482W        W 1479   2.646   2.891   3.764
  483W        W 1480   2.531   3.557   4.853
  484W        W 1481   6.769   2.803   5.426
  485W        W 1482   1.299   3.182   0.545
  486W        W 1483   1.273   1.200   2.197
  487W        W 1484   7.431   1.580   4.839
  488W        W 1485   7.412   3.771   5.062
  489W        W 1486   0.548   4.539   4.546
  490W        W 1487   4.249   7.158   6.207
  491W        W 1488   4.071   4.230   5.690
  492W        W 1489   3.950   2.589   7.550
  493W        W 1490   1.247   5.733   2.433
  494W        W 1491   4.685   3.375   1.712
  495W        W 1492   2.995   7.596   5.450
  496W        W 1493   4.314   4.547   4.889
  497W        W 1494   4.688   3.956   2.447
  498W        W 1495   6.934   7.511   5.920
  499W        W 1496   5.246   2.577   1.201
  500W        W 1497   2.135   5.526   1.287
  501W        W 1498   0.639   4.149   1.266
  502W        W 1499   7.077   6.869   0.119
  503W        W 1500   6.566   3.867   3.310
  504W        W 1501   2.219   2.691   5.617
  505W        W 1502   1.810   1.959   3.307
  506W        W 1503   2.555   5.326   7.457
  507W        W 1504   2.006   2.279   5.823
  508W        W 1505   5.703   3.147   5.174
  509W        W 1506   5.744   1.778   2.600
  510W        W 1507   2.697   7.460   4.056
  511W        W 1508   4.633   0.642   4.197
  512W        W 1509   3.496   3.235   4.749
  513W        W 1510   2.983   1.256   3.038
  514W        W 1511   5.067   6.904   3.109
  515W        W 1512   0.177   6.841   5.469
  516W        W 1513   0.100   5.858   0.041
  517W        W 1514   5.120   6.472   2.237
  518W        W 1515   7.425   1.891   3.543
  519W        W 1516   3.346   3.366   2.062
  520W        W 1517   4.943   3.212   7.333
  521W        W 1518   1.215   4.687   0.844
  522W        W 1519   3.028   7.407   0.527
  523W        W 1520   7.582   0.005   3.042
  524W        W 1521   0.201   3.645   6.965
  525W        W 1522   7.277   4.794   2.733
  526W        W 1523   5.349   4.628   4.057
  527W        W 1524   4.966   2.867   6.984
  528W        W 1525   1.262   3.033   5.054
  529W        W 1526   6.613   7.421   6.380
  530W        W 1527   4.620   3.907   0.719
  531W        W 1528   4.987   7.461   7.894
  532W        W 1529   7.222   7.579   7.508
  533W        W 1530   7.792   6.749   0.286
  534W        W 1531   7.772   0.232   5.642
  535W        W 1532   5.982   5.966   5.055
  536W        W 1533   0.497   0.157   4.251
  537W        W 1534   5.940   6.054   0.239
  538W        W 1535   4.342   2.977   1.604
  539W        W 1536   2.628   3.594   2.729
  540W        W 1537   4.653   2.617   1.232
  541W        W 1538   7.318   0.141   6.262
  542W        W 1539   6.209   0.931   1.592
  543W        W 1540   0.322   3.167   4.880
  544W        W 1541   6.479   5.093   4.224
  545W        W 1542   4.184   0.803   1.556
  546W        W 1543   5.660   4.132   7.602
  547W        W 1544   1.283   4.695   6.268
  548W        W 1545   4.110   1.383   5.752
  549W        W 1546   4.118   4.271   1.307
  550W        W 1547   6.839   5.566   1.290
  551W        W 1548   7.635   5.228   2.470
  552W        W 1549   0.324   3.610   2.813
  553W        W 1550   0.224   3.742   0.793
  554W        W 1551   1.908   6.078   7.028
  555W        W 1552   0.717   3.486   0.585
  556W        W 1553   6.343   2.126   3.278
  557W        W 1554   3.835   1.255   7.451
  558W        W 1555   3.187   0.885   5.582
  559W        W 1556   0.033   4.036   6.689
  560W        W 1557   3.401   7.094   6.261
  561W        W 1558   7.723   6.265   7.387
  562W        W 1559   5.805   4.808   1.212
  563W        W 1560   6.441   5.309   7.423
  564W        W 1561   5.144   5.357   7.685
  565W        W 1562   7.520   2.191   7.253
  566W        W 1563   0.035   2.034   2.958
  567W        W 1564   3.375   4.107   0.903
  568W        W 1565   3.017   5.364   3.640
  569W        W 1566   0.425   4.345   5.912
  570W        W 1567   2.542   1.777   2.588
  571W        W 1568   7.378   5.867   1.885
  572W        W 1569   5.808   0.551   0.559
  573W        W 1570   7.877   2.039   7.607
  574W        W 1571   5.204   3.543   1.426
  575W        W 1572   2.582   7.435   4.585
  576W        W 1573   1.677   2.861   5.916
  577W        W 1574   2.080   0.539   4.640
  578W        W 1575   4.426   0.669   2.879
  579W        W 1576   4.071   2.436   0.616
  580W        W 1577   5.158   5.228   6.585
  581W        W 1578   0.143   0.560   4.410
  582W        W 1579   4.606   5.967   5.119
  583W        W 1580   2.536   0.558   5.816
  584W        W 1581   7.991   5.633   6.639
  585W        W 1582   3.832   7.376   0.280
  586W        W 1583   0.286   5.890   4.577
  587W        W 1584   2.289   0.991   6.095
  588W        W 1585   2.265   7.063   5.248
  589W        W 1586   7.324   0.298   1.252
  590W        W 1587   2.160   2.927   2.892
  591W        W 1588   1.774   5.224   7.423
  592W        W 1589   5.627   3.686   6.405
  593W        W 1590   7.259   2.940   1.332
  594W        W 1591   2.877   6.251   5.587
  595W        W 1592   1.227   1.237   0.955
  596W        W 1593   3.396   7.434   1.537
  597W        W 1594   4.232   3.931   7.043
  598W        W 1595   1.236   7.565   4.667
  599W        W 1596   3.495   4.730   6.042
  600W        W 1597   5.740   1.246   1.262
  601W        W 1598   3.007   1.081   6.393
  602W        W 1599   5.221   1.061   6.166
  603W        W 1600   4.930   6.797   1.256
  604W        W 1601   2.289   3.106   4.016
  605W        W 1602   1.186   5.085   5.902
  606W        W 1603   5.230   6.346   6.416
  607W        W 1604   2.805   4.665   6.760
  608W        W 1605   6.100   1.214   7.252
  609W        W 1606   6.460   0.201   5.175
  610W        W 1607   4.819   3.146   4.692
  611W        W 1608   5.101   1.691   1.163
  612W        W 1609   6.234   3.081   6.213
  613W        W 1610   6.922   4.502   4.361
  614W        W 1611   2.383   7.524   6.951
  615W        W 1612   2.800   6.112   3.806
  616W        W 1613   3.158   2.409   3.475
  617W        W 1614   7.563   0.563   0.850
  618W        W 1615   6.503   3.116   0.416
  619W        W 1616   5.289   4.868   1.395
  620W        W 1617   0.152   2.032   6.016
  621W        W 1618   7.587   4.028   2.743
  622W        W 1619   2.291   0.858   7.014
  623W        W 1620   5.202   0.039   1.816
  624W        W 1621   3.216   2.553   6.908
  625W        W 1622   4.016   0.967   6.795
  626W        W 1623   0.603   5.519   7.381
  627W        W 1624   6.426   3.661   7.654
  628W        W 1625   5.652   1.070   7.518
  629W        W 1626   4.900   5.178   4.854
  630W        W 1627   1.500   7.354   5.865
  631W        W 1628   3.738   3.949   6.893
  632W        W 1629   6.105   3.523   5.085
  633W        W 1630   1.396   5.128   1.171
  634W        W 1631   5.814   6.463   4.070
  635W        W 1632   6.426   6.802   4.629
  636W        W 1633   1.918   1.408   3.199
  637W        W 1634   7.084   0.246   7.757
  638W        W 1635   7.535   3.451   6.572
  639W        W 1636   4.761   4.458   7.624
  640W        W 1637   5.476   5.506   3.062
  641W        W 1638   2.863   3.651   4.411
  642W        W 1639   3.124   4.803   5.673
  643W        W 1640   7.743   2.535   6.986
  644W        W 1641   3.772   5.184   5.908
  645W        W 1642   7.319   0.592   3.824
  646W        W 1643   0.942   3.312   3.162
  647W        W 1644   3.732   1.920   4.338
  648W        W 1645   2.483   6.525   4.522
  649W        W 1646   5.663   7.312   0.318
  650W        W 1647   5.389   2.908   7.218
  651W        W 1648   6.666   1.431   7.086
  652W        W 1649   4.791   5.033   4.367
  653W        W 1650   7.727   7.693   5.756
  654W        W 1651   6.520   5.539   5.383
  655W        W 1652   3.165   0.879   0.806
  656W        W 1653   4.099   7.265   7.501
  657W        W 1654   7.142   7.191   3.641
  658W        W 1655   5.643   4.973   1.712
  659W        W 1656   3.923   5.851   2.934
  660W        W 1657   1.047   0.730   0.842
  661W        W 1658   3.634   0.799   1.537
  662W        W 1659   3.739   6.172   4.685
  663W        W 1660   2.692   1.409   4.344
  664W        W 1661   7.646   0.601   5.030
  665W        W 1662   0.747   7.548   4.601
  666W        W 1663   7.994   6.359   3.127
  667W        W 1664   1.802   3.796   0.068
  668W        W 1665   4.654   7.471   0.948
  669W        W 1666   3.264   6.732   4.230
  670W        W 1667   5.444   5.721   6.519
  671W        W 1668   1.008   3.978   2.077
  672W        W 1669   0.677   1.078   1.695
  673W        W 1670   7.017   4.256   1.494
  674W        W 1671   6.891   6.336   5.858
  675W        W 1672   5.465   1.586   6.276
  676W        W 1673   1.614   5.297   3.790
  677W        W 1674   1.408   3.908   7.214
  678W        W 1675   1.016   3.415   6.237
  679W        W 1676   5.187   5.137   2.376
  680W        W 1677   5.945   7.734   0.261
  681W        W 1678   1.525   2.450   0.197
  682W        W 1679   0.843   5.491   6.891
  683W        W 1680   7.895   6.664   1.385
  684W        W 1681   1.597   5.021   4.554
  685W        W 1682   4.845   3.903   4.494
  686W        W 1683   3.044   4.869   6.206
  687W        W 1684   1.797   6.203   3.493
  688W        W 1685   7.135   0.546   6.432
  689W        W 1686   4.333   6.850   4.869
  690W        W 1687   3.065   2.670   2.662
  691W        W 1688   3.117   0.315   2.395
  692W        W 1689   6.485   0.695   2.439
  693W        W 1690   2.286   5.863   6.341
  694W        W 1691   3.708   0.846   7.169
  695W        W 1692   1.212   6.050   4.135
  696W        W 1693   4.418   4.685   2.333
  697W        W 1694   5.465   5.844   3.535
  698W        W 1695   3.570   2.692   4.939
  699W        W 1696   3.117   3.245   0.875
  700W        W 1697   3.398   6.302   2.719
  701W        W 1698   7.441   2.521   4.771
  702W        W 1699   3.114   6.425   0.093
  703W        W 1700   4.183   0.432   5.722
  704W        W 1701   3.636   4.251   6.241
  705W        W 1702   4.758   3.178   2.262
  706W        W 1703   1.587   1.163   3.531
  707W        W 1704   7.052   4.064   4.338
  708W        W 1705   0.063   3.334   1.877
  709W        W 1706   4.492   2.315   5.164
  710W        W 1707   6.124   5.431   3.999
  711W        W 1708   2.929   3.730   6.663
  712W        W 1709   6.545   0.630   1.750
  713W        W 1710   4.720   2.586   0.151
  714W        W 1711   3.666   1.042   2.376
  715W        W 1712   4.892   0.678   3.118
  716W        W 1713   6.602   4.315   3.583
  717W        W 1714   5.543   6.725   3.066
  718W        W 1715   4.428   4.893   7.861
  719W        W 1716   1.349   4.504   5.750
  720W        W 1717   7.084   3.028   2.700
  721W        W 1718   5.021   6.502   4.099
  722W        W 1719   5.809   4.553   3.736
  723W        W 1720   7.508   3.429   0.331
  724W        W 1721   7.863   0.510   3.663
  725W        W 1722   0.355   1.834   0.726
  726W        W 1723   3.006   4.287   2.349
  727W        W 1724   7.125   2.817   3.551
  728W        W 1725   5.053   5.760   2.776
  729W        W 1726   2.920   7.448   6.800
  730W        W 1727   0.547   1.496   2.918
  731W        W 1728   0.045   5.409   0.230
  732W        W 1729   3.246   0.574   7.868
  733W        W 1730   6.209   6.210   5.412
  734W        W 1731   3.496   1.107   2.959
  735W        W 1732   0.202   1.289   7.218
  736W        W 1733   7.595   7.058   4.752
  737W        W 1734   5.221   7.081   1.783
  738W        W 1735   4.346   7.524   2.685
  739W        W 1736   2.680   2.372   6.812
  740W        W 1737   0.272   4.236   0.905
  741W        W 1738   5.840   5.692   4.668
  742W        W 1739   2.766   1.303   5.679
  743W        W 1740   6.359   6.594   1.848
  744W        W 1741   5.430   2.222   2.987
  745W        W 1742   5.441   5.763   1.841
  746W        W 1743   0.531   2.365   5.632
  747W        W 1744   2.954   1.700   1.674
  748W        W 1745   7.621   3.237   5.727
  749W        W 1746   0.649   2.401   2.353
  750W        W 1747   1.721   3.936   3.585
  751W        W 1748   3.599   7.066   1.749
  752W        W 1749   6.342   3.027   5.733
  753W        W 1750   4.090   4.384   7.175
  754W        W 1751   5.545   4.090   2.682
  755W        W 1752   2.264   5.237   2.081
  756W        W 1753   5.913   7.713   4.093
  757W        W 1754   3.245   6.402   1.144
  758W        W 1755   3.932   3.889   7.439
  759W        W 1756   2.502   6.522   3.966
  760W        W 1757   4.040   7.897   1.758
  761W        W 1758   5.233   2.606   3.191
  762W        W 1759   5.567   7.716   0.647
  763W        W 1760   4.869   1.991   7.449
  764W        W 1761   3.390   3.753   2.940
  765W        W 1762   0.812   1.401   2.087
  766W        W 1763   3.202   6.231   7.403
  767W        W 1764   1.524   6.920   4.096
  768W        W 1765   1.421   1.412   3.028
  769W        W 1766   7.420   1.326   1.427
  770W        W 1767   2.250   3.925   2.825
  771W        W 1768   2.017   4.018   0.446
  772W        W 1769   4.214   0.131   6.769
  773W        W 1770   7.651   2.160   5.691
  774W        W 1771   7.147   2.379   4.286
  775W        W 1772   6.438   3.904   5.094
  776W        W 1773   2.562   1.742   0.562
  777W        W 1774   7.000   6.917   1.133
  778W        W 1775   3.171   7.858   5.933
  779W        W 1776   5.918   1.346   4.481
  780W        W 1777   7.354   5.835   6.709
  781W        W 1778   1.022   7.298   5.068
  782W        W 1779   1.637   3.652   1.536
  783W        W 1780   4.700   5.783   3.570
  784W        W 1781   4.056   4.719   5.852
  785W        W 1782   5.083   0.796   4.373
  786W        W 1783   3.569   7.764   1.852
  787W        W 1784   3.311   0.291   3.292
  788W        W 1785   1.888   2.036   1.124
  789W        W 1786   3.141   5.918   4.320
  790W        W 1787   1.164   5.531   1.461
  791W        W 1788   5.900   4.482   7.822
  792W        W 1789   2.393   6.021   7.142
  793W        W 1790   3.662   1.541   5.473
  794W        W 1791   3.922   4.919   2.477
  795W        W 1792   3.203   4.382   3.852
  796W        W 1793   3.175   1.203   2.536
  797W        W 1794   4.765   0.817   1.985
  798W        W 1795   0.138   4.991   3.804
  799W        W 1796   6.678   2.203   6.575
  800W        W 1797   4.582   7.078   7.520
  801W        W 1798   7.080   0.317   2.566
  802W        W 1799   7.047   0.066   2.996
  803W        W 1800   1.420   6.824   7.049
  804W        W 1801   2.137   6.064   3.184
  805W        W 1802   5.599   1.795   1.442
  806W        W 1803   1.079   1.219   7.341
  807W        W 1804   6.324   7.800   5.275
  808W        W 1805   3.814   6.348   3.067
  809W        W 1806   0.638   6.022   7.278
  810W        W 1807   3.896   0.582   2.569
  811W        W 1808   7.838   7.938   6.760
  812W        W 1809   1.694   6.996   6.608
  813W        W 1810   6.550   6.219   6.919
  814W        W 1811   4.141   2.484   1.491
  815W        W 1812   4.366   4.879   1.892
  816W        W 1813   3.890   4.464   5.227
  817W        W 1814   4.322   4.220   2.198
  818W        W 1815   7.712   6.556   5.491
  819W        W 1816   6.681   0.257   1.311
  820W        W 1817   6.360   0.096   6.675
  821W        W 1818   3.641   2.035   4.803
  822W        W 1819   7.127   1.857   4.383
  823W        W 1820   1.201   2.145   0.449
  824W        W 1821   6.194   7.259   6.684
  825W        W 1822   3.286   6.929   2.196
  826W        W 1823   7.891   6.294   0.069
  827W        W 1824   1.462   2.385   3.446
  828W        W 1825   6.538   2.591   5.035
  829W        W 1826   6.993   6.038   1.494
  830W        W 1827   6.291   2.003   5.622
  831W        W 1828   6.843   6.613   4.968
  832W        W 1829   1.628   5.686   7.034
  833W        W 1830   0.372   5.154   0.568
  834W        W 1831   0.192   7.138   1.280
  835W        W 1832   3.695   6.274   7.428
  836W        W 1833   1.536   1.917   5.082
  837W        W 1834   7.188   6.624   5.549
  838W        W 1835   3.745   5.473   2.203
  839W        W 1836   2.750   7.132   5.512
  840W        W 1837   3.574   6.717   1.410
  841W        W 1838   5.807   3.849   2.025
  842W        W 1839   2.298   5.809   2.189
  843W        W 1840   1.396   7.287   3.533
  844W        W 1841   1.489   6.440   3.203
  845W        W 1842   6.593   6.010   1.145
  846W        W 1843   3.303   7.064   4.739
  847W        W 1844   7.298   7.951   2.552
  848W        W 1845   7.551   2.447   6.509
  849W        W 1846   4.137   1.128   2.129
  850W        W 1847   3.710   2.616   7.064
  851W        W 1848   2.771   3.120   1.212
  852W        W 1849   7.193   3.845   6.617
  853W        W 1850   3.496   1.347   0.700
  854W        W 1851   4.900   1.727   0.701
  855W        W 1852   5.959   1.680   4.854
  856W        W 1853   4.010   1.473   0.865
  857W        W 1854   3.907   1.399   6.185
  858W        W 1855   6.760   3.430   2.768
  859W        W 1856   2.220   5.611   5.922
  860W        W 1857   5.565   4.482   1.544
  861W        W 1858   0.017   2.878   5.815
  862W        W 1859   5.654   3.685   5.857
  863W        W 1860   4.875   6.902   5.078
  864W        W 1861   3.367   0.318   5.128
  865W        W 1862   4.797   7.291   3.383
  866W        W 1863   2.635   3.243   6.778
  867W        W 1864   2.664   7.910   6.859
  868W        W 1865   7.209   0.112   5.633
  869W        W 1866   5.711   6.140   6.348
  870W        W 1867   1.766   4.509   2.203
  871W        W 1868   1.742   2.104   3.805
  872W        W 1869   3.532   5.255   7.353
  873W        W 1870   6.076   2.859   0.746
  874W        W 1871   6.226   3.159   6.787
  875W        W 1872   6.840   2.037   1.491
  876W        W 1873   6.275   7.544   1.196
  877W        W 1874   1.311   2.704   1.901
  878W        W 1875   5.397   2.054   0.944
  879W        W 1876   6.285   2.643   0.354
  880W        W 1877   3.694   0.903   0.452
  881W        W 1878   1.893   0.839   0.304
  882W        W 1879   7.060   2.886   2.249
  883W        W 1880   7.262   3.375   4.721
  884W        W 1881   4.021   3.014   6.903
  885W        W 1882   1.218   0.494   3.184
  886W        W 1883   0.889   0.470   6.247
  887W        W 1884   1.938   1.209   7.165
  888W        W 1885   2.027   1.006   3.859
  889W        W 1886   3.078   3.706   0.687
  890W        W 1887   5.653   2.313   7.951
  891W        W 1888   1.304   4.926   7.471
  892W        W 1889   5.556   0.551   6.714
  893W        W 1890   6.728   3.740   2.280
  894W        W 1891   5.114   4.551   0.243
  895W        W 1892   7.038   6.970   1.620
  896W        W 1893   3.822   4.518   1.635
  897W        W 1894   4.001   1.172   5.234
  898W        W 1895   0.496   5.291   6.603
  899W        W 1896   3.944   7.955   0.814
  900W        W 1897   0.546   3.519   6.411
  901W        W 1898   2.529   7.416   0.197
  902W        W 1899   7.105   6.582   2.538
  903W        W 1900   3.681   1.747   6.533
  904W        W 1901   5.293   4.796   6.354
  905W        W 1902   0.915   3.159   7.669
  906W        W 1903   1.332   0.205   1.773
  907W        W 1904   5.819   7.572   7.811
  908W        W 1905   4.667   0.544   5.546
  909W        W 1906   3.351   4.753   2.063
  910W        W 1907   5.804   2.667   1.240
  911W        W 1908   5.441   2.297   0.320
  912W        W 1909   4.362   1.525   5.319
  913W        W 1910   7.313   0.298   1.797
  914W        W 1911   0.001   1.151   2.642
  915W        W 1912   6.472   4.314   2.496
  916W        W 1913   3.087   7.268   4.331
  917W        W 1914   2.723   7.498   7.370
  918W        W 1915   1.157   0.291   0.019
  919W        W 1916   0.068   3.400   6.557
  920W        W 1917   2.906   7.091   6.429
  921W        W 1918   4.511   5.557   4.874
  922W        W 1919   5.860   4.474   0.835
  923W        W 1920   6.893   6.693   6.422
  924W        W 1921   4.391   2.575   3.360
  925W        W 1922   2.906   6.379   4.289
  926W        W 1923   2.871   6.934   7.424
  927W        W 1924   3.712   2.699   1.305
  928W        W 1925   1.796   1.134   5.320
  929W        W 1926   6.536   7.195   0.908
  930W        W 1927   5.036   3.241   1.043
  931W        W 1928   6.763   3.246   7.585
  932W        W 1929   7.846   6.979   6.494
  933W        W 1930   4.943   4.920   7.811
  934W        W 1931   2.943   6.998   3.799
  935W        W 1932   1.326   5.599   6.604
  936W        W 1933   0.515   7.604   2.725
  937W        W 1934   2.104   3.453   2.841
  938W        W 1935   6.428   6.822   5.303
  939W        W 1936   5.360   4.774   6.942
  940W        W 1937   3.958   6.118   6.932
  941W        W 1938   4.563   5.871   1.652
  942W        W 1939   0.128   4.512   3.746
  943W        W 1940   1.515   2.327   6.240
  944W        W 1941   4.465   5.572   7.382
  945W        W 1942   6.941   6.530   3.030
  946W        W 1943   5.805   4.177   6.037
  947W        W 1944   7.004   1.155   1.234
  948W        W 1945   0.388   3.811   5.758
  949W        W 1946   4.005   3.468   7.190
  950W        W 1947   6.670   0.107   7.514
  951W        W 1948   0.297   4.506   5.010
  952W        W 1949   4.491   2.303   7.446
  953W        W 1950   4.296   4.753   2.859
  954W        W 1951   2.726   5.544   0.325
  955W        W 1952   3.337   2.878   3.083
  956W        W 1953   3.582   0.331   2.203
  957W        W 1954   6.898   1.536   4.724
  958W        W 1955   2.483   1.644   3.901
  959W        W 1956   5.851   5.987   3.251
  960W        W 1957   4.864   5.840   1.046
  961W        W 1958   6.844   3.175   3.995
  962W        W 1959   0.518   3.301   1.767
  963W        W 1960   5.767   1.207   5.472
  964W        W 1961   3.918   3.500   2.945
  965W        W 1962   1.428   5.400   5.470
  966W        W 1963   7.012   3.763   1.423
  967W        W 1964   2.536   2.445   3.485
  968W        W 1965   1.085   2.146   3.233
  969W        W 1966   2.839   4.805   5.160
  970W        W 1967   6.972   6.161   3.542
  971W        W 1968   1.276   5.980   1.156
  972W        W 1969   4.396   0.151   0.998
  973W        W 1970   3.757   0.708   5.103
  974W        W 1971   4.030   5.915   7.447
  975W        W 1972   5.179   7.568   1.086
  976W        W 1973   7.319   5.022   0.938
  977W        W 1974   6.514   6.061   2.216
  978W        W 1975   3.070   4.476   4.871
  979W        W 1976   3.013   2.894   6.527
  980W        W 1977   5.527   2.920   0.879
  981W        W 1978   7.000   1.626   3.893
  982W        W 1979   0.082   5.279   5.631
  983W        W 1980   6.018   0.832   1.040
  984W        W 1981   3.547   2.545   2.758
  985W        W 1982   1.077   0.354   4.798
  986W        W 1983   2.600   5.145   3.858
  987W        W 1984   5.689   2.920   2.350
  988W        W 1985   2.504   2.739   0.926
  989W        W 1986   2.973   3.959   2.779
  990W        W 1987   7.246   1.188   5.668
  991W        W 1988   5.555   0.154   7.125
  992W        W 1989   4.456   7.403   5.796
  993W        W 1990   3.083   2.675   4.172
  994W        W 1991   4.675   2.752   1.870
  995W        W 1992   4.158   4.184   3.586
  996W        W 1993   2.269   6.175   1.319
  997W        W 1994   4.490   2.764   5.433
  998W        W 1995   1.819   5.613   0.564
  999W        W 1996   0.003   4.041   0.383
 1000W        W 1997   6.730   3.597   1.028
 1001W        W 1998   7.406   6.131   6.248
 1002W        W 1999   4.591   4.252   3.345
 1003W        W 2000   4.236   3.011   7.500
 1004W        W 2001   1.180   6.272   4.569
 1005W        W 2002   6.335   6.960   4.023
 1006W        W 2003   3.501   0.218   0.224
 1007W        W 2004   7.113   1.939   1.921
 1008W        W 2005   7.415   4.354   2.392
 1009W        W 2006   2.056   1.011   2.319
 1010W        W 2007   6.751   7.606   6.813
 1011W        W 2008   3.062   5.826   2.898
 1012W        W 2009   6.567   3.433   6.491
 1013W        W 2010   4.902   7.280   1.376
 1014W        W 2011   1.908   5.662   4.953
 1015W        W 2012   4.602   6.999   0.081
 1016W        W 2013   5.422   4.965   0.270
 1017W        W 2014   0.941   6.014   0.318
 1018W        W 2015   6.389   7.684   2.789
 1019W        W 2016   5.108   6.126   4.576
 1020W        W 2017   5.444   2.473   2.541
 1021W        W 2018   5.227   4.048   0.225
 1022W        W 2019   5.713   1.745   1.961
 1023W        W 2020   2.799   3.654   3.432
 1024W        W 2021   3.530   7.966   7.123
 1025W        W 2022   5.449   3.091   3.041
 1026W        W 2023   6.268   4.709   2.901
 1027W        W 2024   5.641   5.643   3.982
 1028W        W 2025   7.776   5.874   7.021
 1029W        W 2026   6.335   5.614   1.370
 1030W        W 2027   0.354   7.844   6.757
 1031W        W 2028   7.476   2.066   4.116
 1032W        W 2029   3.928   6.100   6.005
 1033W        W 2030   2.580   4.977   6.336
 1034W        W 2031   1.569   5.996   5.173
 1035W        W 2032   4.949   4.583   3.597
 1036W        W 2033   3.142   6.756   5.561
 1037W        W 2034   1.693   3.645   5.545
 1038W        W 2035   1.664   3.058   4.620
 1039W        W 2036   4.830   4.724   1.087
 1040W        W 2037   5.833   5.746   1.482
 1041W        W 2038   7.628   3.244   1.543
 1042W        W 2039   6.436   0.366   3.845
 1043W        W 2040   7.726   2.999   7.922
 1044W        W 2041   6.981   4.385   5.350
 1045W        W 2042   1.697   7.012   2.333
 1046W        W 2043   2.470   5.045   6.798
 1047W        W 2044   2.699   4.150   4.825
 1048W        W 2045   0.296   1.363   4.181
 1049W        W 2046   1.622   3.374   2.600
 1050W        W 2047   4.354   7.543   3.313
 1051W        W 2048   7.034   5.787   3.834
 1052W        W 2049   5.145   6.054   6.881
 1053W        W 2050   3.004   0.352   0.136
 1054W        W 2051   0.452   4.205   7.641
 1055W        W 2052   5.168   0.548   2.339
 1056W        W 2053   1.032   4.046   6.922
 1057W        W 2054   4.476   0.410   1.428
 1058W        W 2055   2.368   6.709   7.733
 1059W        W 2056   5.465   5.845   0.242
 1060W        W 2057   3.378   4.676   0.238
 1061W        W 2058   3.341   5.214   1.690
 1062W        W 2059   4.562   1.263   0.791
 1063W        W 2060   1.465   6.290   7.881
 1064W        W 2061   2.826   6.337   7.059
 1065W        W 2062   4.891   6.400   5.183
 1066W        W 2063   0.909   2.548   5.958
 1067W        W 2064   2.804   7.722   6.385
 1068W        W 2065   1.821   0.355   0.484
 1069W        W 2066   1.342   1.666   2.598
 1070W        W 2067   2.191   2.901   7.545
 1071W        W 2068   6.060   1.427   2.206
 1072W        W 2069   5.338   1.827   0.456
 1073W        W 2070   2.874   4.892   1.459
 1074W        W 2071   1.834   0.195   2.522
 1075W        W 2072   6.239   7.300   5.351
 1076W        W 2073   4.969   4.629   2.548
 1077W        W 2074   0.777   3.832   3.508
 1078W        W 2075   5.149   6.670   6.909
 1079W        W 2076   6.085   1.512   6.300
 1080W        W 2077   7.465   2.577   3.265
 1081W        W 2078   6.087   1.336   3.709
 1082W        W 2079   1.638   2.544   6.727
 1083W        W 2080   0.385   4.034   4.797
 1084W        W 2081   0.482   1.379   5.674
 1085W        W 2082   0.242   4.853   3.310
 1086W        W 2083   5.309   6.489   1.442
 1087W        W 2084   3.938   1.744   6.996
 1088W        W 2085   0.524   3.550   3.870
 1089W        W 2086   0.786   3.743   2.892
 1090W        W 2087   4.999   6.683   5.574
 1091W        W 2088   1.681   4.256   4.748
 1092W        W 2089   0.938   1.418   6.009
 1093W        W 2090   5.440   4.797   3.544
 1094W        W 2091   4.939   7.991   5.248
 1095W        W 2092   4.667   0.450   5.005
 1096W        W 2093   0.559   1.736   5.308
 1097W        W 2094   1.912   7.623   0.138
 1098W        W 2095   6.608   3.807   1.743
 1099W        W 2096   3.360   2.001   4.042
 1100W        W 2097   0.386   0.180   0.625
 1101W        W 2098   4.866   2.164   0.978
 1102W        W 2099   7.818   0.030   0.051
 1103W        W 2100   1.303   5.078   1.776
 1104W        W 2101   0.217   5.175   1.127
 1105W        W 2102   2.460   5.193   5.213
 1106W        W 2103   3.241   7.779   2.356
 1107W        W 2104   6.462   0.782   4.379
 1108W        W 2105   5.998   1.762   4.130
 1109W        W 2106   1.353   3.223   6.577
 1110W        W 2107   6.247   1.885   2.814
 1111W        W 2108   0.016   0.103   4.674
 1112W        W 2109   0.791   3.735   5.499
 1113W        W 2110   1.278   1.701   4.585
 1114W        W 2111   6.061   1.630   1.049
 1115W        W 2112   4.359   1.204   1.277
 1116W        W 2113   7.505   0.577   6.032
 1117W        W 2114   2.201   1.277   5.682
 1118W        W 2115   7.471   0.804   3.433
 1119W        W 2116   4.863   6.071   2.328
 1120W        W 2117   0.304   6.595   0.094
 1121W        W 2118   7.267   0.286   3.432
 1122W        W 2119   0.667   1.209   3.347
 1123W        W 2120   6.712   4.690   7.639
 1124W        W 2121   1.447   1.939   2.961
 1125W        W 2122   3.201   5.503   0.365
 1126W        W 2123   3.084   1.142   1.986
 1127W        W 2124   5.634   6.317   5.254
 1128W        W 2125   0.985   5.964   3.333
 1129W        W 2126   6.265   4.431   5.015
 1130W        W 2127   6.228   7.698   3.540
 1131W        W 2128   3.817   0.298   5.391
 1132W        W 2129   2.476   0.913   7.524
 1133W        W 2130   4.966   3.303   3.037
 1134W        W 2131   7.453   2.320   5.309
 1135W        W 2132   7.640   7.552   7.172
 1136W        W 2133   2.261   0.455   0.278
 1137W        W 2134   0.618   6.358   1.648
 1138W        W 2135   5.950   2.835   4.406
 1139W        W 2136   3.496   0.941   7.629
 1140W        W 2137   3.541   0.154   2.723
 1141W        W 2138   3.276   2.798   1.962
 1142W        W 2139   6.605   4.633   3.981
 1143W        W 2140   2.097   5.571   7.236
 1144W        W 2141   3.938   4.747   0.571
 1145W        W 2142   3.676   6.414   3.541
 1146W        W 2143   0.629   1.559   1.554
 1147W        W 2144   5.639   1.258   2.512
 1148W        W 2145   6.580   2.519   7.484
 1149W        W 2146   3.073   6.453   2.278
 1150W        W 2147   1.672   7.002   0.107
 1151W        W 2148   6.582   2.142   0.206
 1152W        W 2149   3.323   6.757   7.436
 1153W        W 2150   7.066   7.436   4.566
 1154W        W 2151   7.386   2.328   6.003
 1155W        W 2152   3.152   1.405   6.034
 1156W        W 2153   4.086   7.244   4.600
 1157W        W 2154   4.753   6.501   4.682
 1158W        W 2155   7.787   1.222   1.973
 1159W        W 2156   6.495   5.484   0.012
 1160W        W 2157   0.973   2.798   0.005
 1161W        W 2158   2.719   3.061   6.067
 1162W        W 2159   0.311   2.970   6.510
 1163W        W 2160   3.989   1.950   5.393
 1164W        W 2161   4.207   2.560   7.067
 1165W        W 2162   3.163   6.994   1.347
 1166W        W 2163   3.157   2.765   4.711
 1167W        W 2164   7.415   4.168   0.704
 1168W        W 2165   6.256   1.267   4.194
 1169W        W 2166   3.727   2.511   2.244
 1170W        W 2167   4.923   1.444   5.399
 1171W        W 2168   2.640   2.948   4.716
 1172W        W 2169   3.330   4.647   6.497
 1173W        W 2170   2.232   2.089   3.938
 1174W        W 2171   5.287   2.289   7.423
 1175W        W 2172   7.015   5.663   5.231
 1176W        W 2173   3.494   5.968   3.092
 1177W        W 2174   7.078   6.166   5.351
 1178W        W 2175   0.562   6.696   4.224
 1179W        W 2176   7.264   2.924   4.477
 1180W        W 2177   4.618   4.853   5.774
 1181W        W 2178   5.446   0.715   3.238
 1182W        W 2179   1.736   7.025   0.934
 1183W        W 2180   3.494   1.117   5.266
 1184W        W 2181   6.668   2.283   5.422
 1185W        W 2182   7.317   2.931   5.472
 1186W        W 2183   3.832   3.164   3.826
 1187W        W 2184   5.900   4.294   2.348
 1188W        W 2185   4.167   7.871   5.845
 1189W        W 2186   0.744   0.647   3.507
 1190W        W 2187   1.061   2.166   6.440
 1191W        W 2188   3.500   4.993   3.530
 1192W        W 2189   0.721   5.777   4.064
 1193W        W 2190   2.224   4.029   1.619
 1194W        W 2191   6.049   4.942   5.816
 1195W        W 2192   4.093   7.270   4.077
 1196W        W 2193   4.486   1.512   3.592
 1197W        W 2194   6.821   2.684   4.519
 1198W        W 2195   7.591   1.988   3.057
 1199W        W 2196   0.176   4.104   4.233
 1200W        W 2197   4.662   3.662   5.389
 1201W        W 2198   2.564   0.491   4.434
 1202W        W 2199   6.150   4.255   5.563
 1203W        W 2200   2.932   6.778   4.683
 1204W        W 2201   0.834   4.074   5.082
 1205W        W 2202   0.487   1.568   6.136
 1206W        W 2203   1.649   2.257   0.717
 1207W        W 2204   3.816   3.033   2.810
 1208W        W 2205   7.100   3.206   5.790
 1209W        W 2206   7.677   5.164   1.867
 1210W        W 2207   0.980   6.467   3.292
 1211W        W 2208   3.674   6.573   5.610
 1212W        W 2209   6.041   4.914   7.650
 1213W        W 2210   1.498   1.382   4.905
 1214W        W 2211   4.399   2.224   1.137
 1215W        W 2212   1.079   0.800   4.328
 1216W        W 2213   6.991   5.747   0.853
 1217W        W 2214   3.953   0.469   0.623
 1218W        W 2215   7.739   5.277   1.321
 1219W        W 2216   5.560   2.026   4.787
 1220W        W 2217   5.736   6.995   6.161
 1221W        W 2218   4.503   2.133   5.680
 1222W        W 2219   0.339   7.377   1.948
 1223W        W 2220   0.921   6.228   2.177
 1224W        W 2221   1.817   7.156   7.400
 1225W        W 2222   1.148   4.542   6.912
 1226W        W 2223   6.086   5.191   1.483
 1227W        W 2224   6.891   5.013   7.314
 1228W        W 2225   4.201   3.828   2.580
 1229W        W 2226   6.321   3.066   5.216
 1230W        W 2227   7.212   6.156   2.290
 1231W        W 2228   4.420   4.149   5.220
 1232W        W 2229   6.741   2.980   6.628
 1233W        W 2230   2.993   6.432   0.665
 1234W        W 2231   6.464   2.630   6.372
 1235W        W 2232   1.910   7.212   0.497
 1236W        W 2233   4.139   7.036   1.675
 1237W        W 2234   3.777   5.041   3.983
 1238W        W 2235   6.230   5.550   1.949
 1239W        W 2236   1.666   2.182   2.557
 1240W        W 2237   2.492   6.273   2.169
 1241W        W 2238   3.737   2.660   6.034
 1242W        W 2239   6.420   2.814   4.139
 1243W        W 2240   2.111   3.553   1.486
 1244W        W 2241   0.056   0.427   2.832
 1245W        W 2242   1.117   7.647   6.069
 1246W        W 2243   6.219   5.873   6.812
 1247W        W 2244   2.025   3.961   7.673
 1248W        W 2245   2.661   4.839   5.864
 1249W        W 2246   5.243   3.528   3.408
 1250W        W 2247   3.781   0.367   1.725
 1251W        W 2248   4.343   4.692   5.384
 1252W        W 2249   7.508   0.166   2.258
 1253W        W 2250   5.340   6.059   2.541
 1254W        W 2251   4.344   3.901   3.061
 1255W        W 2252   1.347   6.122   2.686
 1256W        W 2253   2.514   3.844   0.708
 1257W        W 2254   6.884   0.578   7.417
 1258W        W 2255   2.943   0.783   2.344
 1259W        W 2256   4.079   6.023   4.351
 1260W        W 2257   4.425   1.954   7.083
 1261W        W 2258   0.232   6.549   0.771
 1262W        W 2259   4.290   5.304   1.647
 1263W        W 2260   5.587   2.360   1.548
 1264W        W 2261   3.663   0.579   3.519
 1265W        W 2262   3.412   2.518   6.484
 1266W        W 2263   1.800   6.958   4.553
 1267W        W 2264   6.351   1.034   2.079
 1268W        W 2265   4.602   2.448   0.681
 1269W        W 2266   0.176   3.893   3.716
 1270W        W 2267   2.342   0.988   4.635
 1271W        W 2268   4.649   1.885   4.478
 1272W        W 2269   6.861   1.993   2.479
 1273W        W 2270   6.455   5.133   2.675
 1274W        W 2271   5.481   0.448   7.577
 1275W        W 2272   4.876   1.732   6.991
 1276W        W 2273   0.850   0.708   2.890
 1277W        W 2274   0.172   5.419   6.260
 1278W        W 2275   4.993   6.619   1.777
 1279W        W 2276   0.447   3.259   0.140
 1280W        W 2277   2.023   4.775   4.566
 1281W        W 2278   3.927   1.219   1.525
 1282W        W 2279   5.914   2.344   3.234
 1283W        W 2280   1.936   7.458   1.801
 1284W        W 2281   2.191   5.884   0.891
 1285W        W 2282   2.946   3.010   7.081
 1286W        W 2283   0.403   0.677   2.529
 1287W        W 2284   3.607   4.399   5.713
 1288W        W 2285   6.651   4.122   5.875
 1289W        W 2286   3.650   1.181   5.817
 1290W        W 2287   3.229   2.330   2.286
 1291W        W 2288   0.355   6.905   2.535
 1292W        W 2289   6.057   2.553   2.331
 1293W        W 2290   6.922   4.117   1.982
 1294W        W 2291   1.998   4.181   3.126
 1295W        W 2292   6.060   5.321   2.393
 1296W        W 2293   3.362   7.821   7.687
 1297W        W 2294   3.696   3.430   6.748
 1298W        W 2295   3.728   0.913   6.345
 1299W        W 2296   5.217   4.981   5.881
 1300W        W 2297   0.594   0.090   6.022
 1301W        W 2298   5.230   5.305   1.880
 1302W        W 2299   3.032   1.755   2.519
 1303W        W 2300   4.184   5.626   5.296
 1304W        W 2301   2.294   6.490   1.731
 1305W        W 2302   5.754   4.647   7.351
 1306W        W 2303   3.596   2.501   0.732
 1307W        W 2304   0.936   4.322   6.089
 1308W        W 2305   0.833   7.622   6.778
 1309W        W 2306   4.062   5.318   4.870
 1310W        W 2307   2.040   0.260   5.024
 1311W        W 2308   3.889   6.723   7.542
 1312W        W 2309   1.014   0.208   4.188
 1313W        W 2310   0.862   6.538   0.251
 1314W        W 2311   5.894   7.172   3.957
 1315W        W 2312   1.124   3.015   2.735
 1316W        W 2313   0.300   4.453   6.463
 1317W        W 2314   3.539   4.136   4.956
 1318W        W 2315   3.578   1.992   7.916
 1319W        W 2316   1.853   7.749   2.223
 1320W        W 2317   5.461   4.541   2.447
 1321W        W 2318   1.550   0.760   5.615
 1322W        W 2319   0.517   7.623   7.632
 1323W        W 2320   3.356   7.307   0.143
 1324W        W 2321   5.951   7.552   2.617
 1325W        W 2322   4.165   0.077   3.431
 1326W        W 2323   0.764   5.254   4.025
 1327W        W 2324   7.025   4.993   6.147
 1328W        W 2325   2.686   1.844   5.857
 1329W        W 2326   1.355   0.207   2.311
 1330W        W 2327   4.323   6.866   3.803
 1331W        W 2328   6.591   2.008   1.994
 1332W        W 2329   2.815   2.610   7.300
 1333W        W 2330   6.963   0.777   3.486
 1334W        W 2331   6.482   3.851   2.716
 1335W        W 2332   5.027   1.383   6.502
 1336W        W 2333   3.985   7.425   0.898
 1337W        W 2334   5.171   7.381   2.880
 1338W        W 2335   0.061   1.487   5.192
 1339W        W 2336   4.114   0.242   2.343
 1340W        W 2337   4.686   0.030   7.445
 1341W        W 2338   5.301   0.539   0.683
 1342W        W 2339   3.173   1.837   7.517
 1343W        W 2340   0.429   5.027   5.229
 1344W        W 2341   7.601   7.132   5.439
 1345W        W 2342   1.914   4.956   0.181
 1346W        W 2343   5.814   0.605   7.206
 1347W        W 2344   2.414   3.338   3.550
 1348W        W 2345   5.515   3.154   0.293
 1349W        W 2346   5.947   0.852   4.478
 1350W        W 2347   7.072   0.464   5.924
 1351W        W 2348   7.451   4.429   0.239
 1352W        W 2349   6.119   4.913   3.718
 1353W        W 2350   6.069   3.507   6.110
 1354W        W 2351   7.708   1.714   7.231
 1355W        W 2352   7.738   1.006   6.227
 1356W        W 2353   3.882   7.454   1.443
 1357W        W 2354   7.136   7.857   5.127
 1358W        W 2355   4.823   2.843   3.268
 1359W        W 2356   1.508   2.550   1.237
 1360W        W 2357   3.943   0.452   6.544
 1361W        W 2358   7.671   4.616   1.903
 1362W        W 2359   4.984   0.197   5.627
 1363W        W 2360   2.006   2.364   7.588
 1364W        W 2361   1.266   3.859   5.422
 1365W        W 2362   4.074   1.852   1.220
 1366W        W 2363   2.767   6.856   2.116
 1367W        W 2364   2.694   1.833   6.786
 1368W        W 2365   1.776   3.968   1.882
 1369W        W 2366   1.433   6.839   5.911
 1370W        W 2367   0.937   6.741   7.292
 1371W        W 2368   3.873   2.918   0.695
 1372W        W 2369   4.633   1.684   6.480
 1373W        W 2370   3.132   5.419   7.093
 1374W        W 2371   5.136   5.654   2.250
 1375W        W 2372   3.789   6.089   2.538
 1376W        W 2373   2.176   6.495   3.556
 1377W        W 2374   3.637   6.393   4.251
 1378W        W 2375   4.946   7.098   3.972
 1379W        W 2376   2.105   6.729   6.482
 1380W        W 2377   0.188   7.660   5.751
 1381W        W 2378   6.312   6.895   0.582
 1382W        W 2379   6.740   4.741   2.733
 1383W        W 2380   2.082   3.323   4.749
 1384W        W 2381   5.952   6.594   1.539
 1385W        W 2382   1.833   4.741   7.357
 1386W        W 2383   3.296   2.774   7.354
 1387W        W 2384   6.362   5.429   3.533
 1388W        W 2385   2.922   5.931   5.199
 1389W        W 2386   1.617   6.714   2.744
 1390W        W 2387   5.128   4.140   2.311
 1391W        W 2388   3.305   5.931   0.083
 1392W        W 2389   4.899   1.989   5.242
 1393W        W 2390   6.758   2.202   4.719
 1394W        W 2391   5.590   6.386   6.761
 1395W        W 2392   0.718   1.108   1.178
 1396W        W 2393   5.579   3.161   7.796
 1397W        W 2394   4.543   5.476   0.451
 1398W        W 2395   1.112   3.647   0.840
 1399W        W 2396   6.331   0.780   2.972
 1400W        W 2397   4.908   4.412   5.364
 1401W        W 2398   7.587   5.823   0.334
 1402W        W 2399   7.290   1.129   3.799
 1403W        W 2400   3.714   2.040   1.465
 1404W        W 2401   7.237   5.494   2.855
 1405W        W 2402   3.796   6.571   6.955
 1406W        W 2403   1.778   6.030   1.271
 1407W        W 2404   7.591   2.620   1.561
 1408W        W 2405   1.116   5.761   4.478
 1409W        W 2406   5.633   5.043   6.633
 1410W        W 2407   7.688   3.141   4.289
 1411W        W 2408   3.902   6.224   5.291
 1412W        W 2409   4.078   6.811   1.228
 1413W        W 2410   7.388   6.661   7.393
 1414W        W 2411   0.066   4.405   4.621
 1415W        W 2412   0.529   5.970   3.629
 1416W        W 2413   1.082   5.121   3.580
 1417W        W 2414   6.769   6.635   7.704
 1418W        W 2415   0.164   6.131   6.648
 1419W        W 2416   1.351   0.689   0.338
 1420W        W 2417   0.785   4.239   2.560
 1421W        W 2418   5.822   4.122   0.417
 1422W        W 2419   3.554   3.598   7.563
 1423W        W 2420   0.559   3.992   6.820
 1424W        W 2421   1.894   1.102   7.970
 1425W        W 2422   2.800   4.596   3.966
 1426W        W 2423   4.534   1.931   3.184
 1427W        W 2424   1.318   0.987   7.823
 1428W        W 2425   5.336   6.642   0.219
 1429W        W 2426   5.751   4.630   2.029
 1430W        W 2427   2.358   2.337   7.234
 1431W        W 2428   5.462   7.445   5.905
 1432W        W 2429   5.394   7.332   3.924
 1433W        W 2430   1.932   6.657   7.394
 1434W        W 2431   3.313   3.006   6.108
 1435W        W 2432   7.018   4.293   7.774
 1436W        W 2433   6.251   4.531   2.084
 1437W        W 2434   5.677   0.823   1.485
 1438W        W 2435   0.181   0.313   7.472
 1439W        W 2436   7.788   3.530   1.096
 1440W        W 2437   1.272   7.091   6.285
 1441W        W 2438   6.063   2.971   2.700
 1442W        W 2439   4.540   2.522   6.452
 1443W        W 2440   3.530   0.381   6.928
 1444W        W 2441   7.183   0.281   0.651
 1445W        W 2442   5.642   1.206   5.954
 1446W        W 2443   3.708   0.045   6.418
 1447W        W 2444   5.034   1.272   4.762
 1448W        W 2445   0.590   4.329   2.097
 1449W        W 2446   1.725   4.283   6.180
 1450W        W 2447   4.089   2.308   3.037
 1451W        W 2448   6.949   0.172   3.822
 1452W        W 2449   2.652   5.645   1.216
 1453W        W 2450   6.126   6.337   3.747
 1454W        W 2451   6.615   3.402   5.975
 1455W        W 2452   2.175   1.295   1.874
 1456W        W 2453   0.093   1.727   6.402
 1457W        W 2454   1.754   2.981   6.474
 1458W        W 2455   6.848   5.103   3.094
 1459W        W 2456   1.685   1.293   0.421
 1460W        W 2457   7.130   4.711   6.527
 1461W        W 2458   0.545   6.512   7.548
 1462W        W 2459   1.963   6.059   5.524
 1463W        W 2460   0.439   1.282   2.433
 1464W        W 2461   0.659   7.191   4.113
 1465W        W 2462   6.040   4.928   4.276
 1466W        W 2463   7.192   2.343   1.678
 1467W        W 2464   0.855   0.673   0.025
 1468W        W 2465   1.077   4.228   4.581
 1469W        W 2466   5.578   0.261   5.410
 1470W        W 2467   2.568   4.130   3.144
 1471W        W 2468   6.233   7.846   2.339
 1472W        W 2469   3.342   0.838   6.064
 1473W        W 2470   1.049   2.854   5.481
 1474W        W 2471   3.349   0.740   2.617
 1475W        W 2472   3.414   0.026   3.754
 1476W        W 2473   5.279   3.992   3.233
 1477W        W 2474   1.204   1.112   5.672
 1478W        W 2475   5.867   1.910   6.439
 1479W        W 2476   6.972   4.184   3.358
 1480W        W 2477   1.757   5.758   2.386
 1481W        W 2478   4.545   0.159   7.952
 1482W        W 2479   7.453   7.326   6.059
 1483W        W 2480   7.622   7.395   6.668
 1484W        W 2481   4.467   7.370   2.231
 1485W        W 2482   5.881   6.534   6.110
 1486W        W 2483   4.415   1.467   7.041
 1487W        W 2484   7.622   2.966   7.407
 1488W        W 2485   0.696   0.010   4.939
 1489W        W 2486   5.107   6.191   5.599
 1490W        W 2487   2.370   4.307   4.069
 1491W        W 2488   3.922   7.605   7.838
 1492W        W 2489   2.765   6.116   0.203
 1493W        W 2490   6.542   2.731   2.102
 1494W        W 2491   5.764   6.814   0.460
 1495W        W 2492   0.607   5.107   5.786
 1496W        W 2493   4.776   6.357   6.772
 1497W        W 2494   6.651   7.169   3.600
 1498W        W 2495   7.032   1.800   7.258
 1499W        W 2496   7.466   0.457   7.432
 1500W        W 2497   1.287   5.443   7.476
 1501W        W 2498   5.107   0.975   1.586
 1502W        W 2499   6.839   7.828   2.078
 1503W        W 2500   5.096   0.342   3.456
 1504W        W 2501   7.414   3.625   6.082
 1505W        W 2502   7.444   6.258   6.994
 1506W        W 2503   0.981   1.980   6.889
 1507W        W 2504   1.698   6.040   0.745
 1508W        W 2505   1.832   1.599   6.802
 1509W        W 2506   4.369   0.714   2.394
 1510W        W 2507   1.978   2.923   3.614
 1511W        W 2508   4.646   5.944   7.121
 1512W        W 2509   2.184   7.558   7.565
 1513W        W 2510   5.632   6.273   0.555
 1514W        W 2511   7.772   5.007   2.868
 1515W        W 2512   0.832   7.449   1.820
 1516W        W 2513   6.322   5.740   3.160
 1517W        W 2514   2.543   3.552   1.080
 1518W        W 2515   1.489   3.457   3.598
 1519W        W 2516   7.830   0.337   1.667
 1520W        W 2517   4.464   7.476   4.318
 1521W        W 2518   7.209   1.608   1.007
 1522W        W 2519   7.819   2.425   0.823
 1523W        W 2520   1.791   1.401   2.178
 1524W        W 2521   7.616   1.182   4.268
 1525W        W 2522   4.175   5.704   2.109
 1526W        W 2523   0.808   4.842   0.512
 1527W        W 2524   0.557   0.767   0.837
 1528W        W 2525   7.396   2.144   2.285
 1529W        W 2526   2.719   4.465   6.255
 1530W        W 2527   3.286   1.367   7.418
 1531W        W 2528   6.292   1.655   3.345
 1532W        W 2529   0.073   7.311   2.727
 1533W        W 2530   4.249   5.123   3.707
 1534W        W 2531   6.108   0.476   2.685
 1535W        W 2532   5.746   0.169   2.180
 1536W        W 2533   0.618   1.067   6.389
 1537W        W 2534   6.417   4.384   7.015
 1538W        W 2535   3.487   2.871   3.580
 1539W        W 2536   5.510   5.288   6.214
 1540W        W 2537   0.532   6.204   3.129
 1541W        W 2538   2.766   0.317   2.755
 1542W        W 2539   3.502   4.934   4.472
 1543W        W 2540   3.017   4.769   2.442
 1544W        W 2541   6.702   1.587   1.012
 1545W        W 2542   2.018   2.511   2.460
 1546W        W 2543   6.307   0.071   1.782
 1547W        W 2544   2.529   5.449   6.412
 1548W        W 2545   7.373   3.802   3.851
 1549W        W 2546   2.520   0.357   6.877
 1550W        W 2547   7.254   2.918   6.584
 1551W        W 2548   2.553   1.263   1.173
 1552W        W 2549   0.615   4.878   2.424
 1553W        W 2550   0.527   1.313   7.570
 1554W        W 2551   7.116   5.438   7.039
 1555W        W 2552   1.996   0.039   3.378
 1556W        W 2553   7.485   2.874   6.173
 1557W        W 2554   7.608   5.585   6.318
 1558W        W 2555   0.213   6.878   1.741
 1559W        W 2556   6.753   7.597   4.938
 1560W        W 2557   3.436   4.257   2.072
 1561W        W 2558   7.335   1.510   1.843
 1562W        W 2559   0.624   7.690   4.069
 1563W        W 2560   1.189   5.528   3.936
 1564W        W 2561   3.193   1.760   0.687
 1565W        W 2562   3.407   4.553   0.697
 1566W        W 2563   1.650   1.108   1.739
 1567W        W 2564   4.816   2.432   7.080
 1568W        W 2565   0.464   4.182   5.391
 1569W        W 2566   5.085   2.746   4.577
 1570W        W 2567   6.311   1.793   6.945
 1571W        W 2568   4.427   7.403   7.943
 1572W        W 2569   7.248   0.490   4.654
 1573W        W 2570   0.710   6.439   5.324
 1574W        W 2571   0.163   4.900   4.767
 1575W        W 2572   1.390   3.206   7.456
 1576W        W 2573   5.150   3.670   7.039
 1577W        W 2574   5.962   7.482   3.126
 1578W        W 2575   1.789   5.157   2.912
 1579W        W 2576   7.661   4.491   5.009
 1580W        W 2577   6.670   2.988   3.101
 1581W        W 2578   3.016   3.384   3.020
 1582W        W 2579   5.513   6.056   4.835
 1583W        W 2580   1.410   4.579   4.291
 1584W        W 2581   5.463   1.985   5.925
 1585W        W 2582   0.329   1.328   6.700
 1586W        W 2583   1.992   2.594   6.242
 1587W        W 2584   0.177   2.228   6.485
 1588W        W 2585   4.955   7.737   2.542
 1589W        W 2586   4.453   4.650   6.316
 1590W        W 2587   5.435   6.421   5.905
 1591W        W 2588   6.318   4.527   1.141
 1592W        W 2589   2.795   3.487   5.861
 1593W        W 2590   5.505   4.971   7.689
 1594W        W 2591   5.537   4.004   1.517
 1595W        W 2592   6.639   4.827   0.731
 1596W        W 2593   1.803   5.346   5.932
 1597W        W 2594   3.276   1.815   5.063
 1598W        W 2595   4.133   0.137   6.210
 1599W        W 2596   1.441   0.409   2.745
 1600W        W 2597   6.397   3.710   5.643
 1601W        W 2598   5.358   4.297   3.635
 1602W        W 2599   7.061   0.525   2.126
 1603W        W 2600   0.576   4.406   7.164
 1604W        W 2601   2.660   5.098   7.919
 1605W        W 2602   5.772   2.401   0.733
 1606W        W 2603   4.438   5.155   5.178
 1607W        W 2604   2.671   1.960   6.346
 1608W        W 2605   1.765   6.611   2.013
 1609W        W 2606   2.391   3.822   4.472
 1610W        W 2607   5.814   5.830   2.740
 1611W        W 2608   0.692   1.024   3.893
 1612W        W 2609   7.767   7.646   2.235
 1613W        W 2610   4.076   4.360   3.129
 1614W        W 2611   3.205   0.791   3.265
 1615W        W 2612   5.526   5.410   6.960
 1616W        W 2613   1.990   2.427   0.388
 1617W        W 2614   2.868   5.553   4.098
 1618W        W 2615   0.274   4.709   0.782
 1619W        W 2616   2.491   4.948   4.695
 1620W        W 2617   2.116   7.090   7.854
 1621W        W 2618   1.486   6.327   1.615
 1622W        W 2619   6.531   4.885   2.258
 1623W        W 2620   3.216   3.324   6.769
 1624W        W 2621   2.016   0.649   2.763
 1625W        W 2622   2.046   1.167   1.366
 1626W        W 2623   2.769   2.332   3.953
 1627W        W 2624   2.647   5.507   6.980
 1628W        W 2625   5.881   5.785   2.260
 1629W        W 2626   2.657   2.848   4.251
 1630W        W 2627   7.808   6.537   3.566
 1631W        W 2628   3.516   7.607   4.272
 1632W        W 2629   3.424   6.925   3.613
 1633W        W 2630   2.790   1.854   5.222
 1634W        W 2631   0.483   0.297   6.555
 1635W        W 2632   4.429   4.711   7.357
 1636W        W 2633   1.396   6.712   7.553
 1637W        W 2634   7.494   1.191   0.984
 1638W        W 2635   3.853   4.818   0.070
 1639W        W 2636   5.960   1.198   4.977
 1640W        W 2637   5.033   5.651   0.213
 1641W        W 2638   5.166   3.297   2.554
 1642W        W 2639   1.111   2.459   6.875
 1643W        W 2640   0.302   0.807   6.721
 1644W        W 2641   4.177   4.628   3.946
 1645W        W 2642   5.798   2.784   3.902
 1646W        W 2643   4.388   4.202   7.528
 1647W        W 2644   1.875   5.670   2.863
 1648W        W 2645   1.249   4.190   0.839
 1649W        W 2646   4.638   6.353   5.644
 1650W        W 2647   3.580   3.200   1.064
 1651W        W 2648   3.843   0.785   5.595
 1652W        W 2649   1.962   0.517   3.593
 1653W        W 2650   7.330   6.644   5.037
 1654W        W 2651   3.114   6.868   0.871
 1655W        W 2652   1.413   2.944   7.000
 1656W        W 2653   5.574   2.616   4.746
 1657W        W 2654   3.474   0.799   4.361
 1658W        W 2655   2.069   7.374   4.854
 1659W        W 2656   0.448   0.638   6.210
 1660W        W 2657   2.584   5.970   4.201
 1661W        W 2658   0.985   4.245   5.589
 1662W        W 2659   1.110   1.259   3.675
 1663W        W 2660   5.261   0.686   1.193
 1664W        W 2661   4.119   2.395   5.632
 1665W        W 2662   5.874   0.817   3.559
 1666W        W 2663   6.143   0.541   2.088
 1667W        W 2664   5.531   6.685   1.928
 1668W        W 2665   2.042   2.409   3.534
 1669W        W 2666   4.395   2.448   3.909
 1670W        W 2667   2.566   1.447   6.183
 1671W        W 2668   4.419   0.971   7.169
 1672W        W 2669   0.638   0.525   7.210
 1673W        W 2670   2.848   5.053   4.266
 1674W        W 2671   5.473   6.391   4.374
 1675W        W 2672   6.034   5.371   2.947
 1676W        W 2673   3.674   5.952   4.055
 1677W        W 2674   1.230   7.334   0.843
 1678W        W 2675   1.219   1.645   0.593
 1679W        W 2676   2.223   1.625   6.504
 1680W        W 2677   6.641   4.362   0.719
 1681W        W 2678   7.706   2.435   2.812
 1682W        W 2679   0.890   2.120   4.923
 1683W        W 2680   2.443   6.161   5.267
 1684W        W 2681   1.811   5.290   6.790
 1685W        W 2682   7.425   4.879   2.271
 1686W        W 2683   5.567   7.750   2.973
 1687W        W 2684   4.133   5.179   7.571
 1688W        W 2685   2.783   3.019   2.816
 1689W        W 2686   1.930   7.493   5.355
 1690W        W 2687   1.720   5.963   4.000
 1691W        W 2688   6.384   7.461   3.976
 1692W        W 2689   6.893   2.676   4.015
 1693W        W 2690   7.152   4.350   2.928
 1694W        W 2691   2.199   1.995   6.868
 1695W        W 2692   0.589   3.749   2.325
 1696W        W 2693   5.467   4.137   5.269
 1697W        W 2694   7.769   0.007   0.609
 1698W        W 2695   3.719   0.018   3.235
 1699W        W 2696   4.320   7.270   0.451
 1700W        W 2697   5.418   6.375   7.265
 1701W        W 2698   2.061   6.437   0.850
 1702W        W 2699   2.863   5.175   5.543
 1703W        W 2700   0.153   2.682   0.156
 1704W        W 2701   2.775   4.943   2.837
 1705W        W 2702   7.318   7.049   6.474
 1706W        W 2703   0.326   0.362   5.032
 1707W        W 2704   3.916   2.169   2.571
 1708W        W 2705   0.726   0.133   1.450
 1709W        W 2706   4.917   4.577   6.107
 1710W        W 2707   5.090   2.202   1.444
 1711W        W 2708   4.726   6.268   3.282
 1712W        W 2709   0.942   0.045   7.397
 1713W        W 2710   1.862   7.796   7.231
 1714W        W 2711   4.214   6.426   0.818
 1715W        W 2712   0.938   2.908   6.753
 1716W        W 2713   3.070   3.944   5.142
 1717W        W 2714   4.512   0.027   1.725
 1718W        W 2715   0.766   6.490   4.750
 1719W        W 2716   6.610   2.008   7.665
 1720W        W 2717   3.714   6.869   0.295
 1721W        W 2718   4.270   4.141   6.190
 1722W        W 2719   4.616   1.846   1.382
 1723W        W 2720   2.951   1.450   3.834
 1724W        W 2721   1.293   4.122   1.702
 1725W        W 2722   1.215   3.061   5.914
 1726W        W 2723   1.364   0.711   1.909
 1727W        W 2724   6.632   3.002   3.596
 1728W        W 2725   5.205   3.388   0.588
 1729W        W 2726   4.047   6.348   3.892
 1730W        W 2727   4.296   3.258   4.496
 1731W        W 2728   5.036   3.868   1.023
 1732W        W 2729   2.112   6.221   4.236
 1733W        W 2730   3.852   3.025   1.763
 1734W        W 2731   3.671   7.465   4.715
 1735W        W 2732   4.329   4.651   0.978
 1736W        W 2733   4.883   4.704   7.157
 1737W        W 2734   0.548   2.462   1.569
 1738W        W 2735   4.487   5.047   1.235
 1739W        W 2736   2.230   5.879   0.403
 1740W        W 2737   0.988   3.514   5.086
 1741W        W 2738   2.072   5.509   5.415
 1742W        W 2739   4.080   4.237   6.683
 1743W        W 2740   6.735   0.824   0.649
 1744W        W 2741   4.665   1.165   0.297
 1745W        W 2742   0.621   6.282   2.585
 1746W        W 2743   4.929   5.654   6.654
 1747W        W 2744   0.290   6.139   6.042
 1748W        W 2745   7.285   7.605   3.871
 1749W        W 2746   6.005   7.506   5.724
 1750W        W 2747   3.982   4.589   2.126
 1751W        W 2748   5.631   0.344   2.737
 1752W        W 2749   5.927   2.244   2.715
 1753W        W 2750   3.972   0.976   2.861
 1754W        W 2751   7.447   6.249   5.807
 1755W        W 2752   2.034   0.786   1.824
 1756W        W 2753   7.803   0.754   4.114
 1757W        W 2754   0.612   7.069   7.615
 1758W        W 2755   2.352   5.459   0.670
 1759W        W 2756   1.368   7.756   1.100
 1760W        W 2757   4.551   5.998   4.611
 1761W        W 2758   0.932   1.536   7.806
 1762W        W 2759   1.355   7.960   7.427
 1763W        W 2760   5.969   2.937   7.246
 1764W        W 2761   3.856   3.053   6.327
 1765W        W 2762   2.370   6.774   1.299
 1766W        W 2763   7.390   6.099   1.076
 1767W        W 2764   3.657   1.297   6.978
 1768W        W 2765   4.447   4.458   4.385
 1769W        W 2766   6.983   6.902   2.143
 1770W        W 2767   3.032   2.300   0.911
 1771W        W 2768   3.076   6.488   3.479
 1772W        W 2769   3.312   3.741   7.089
 1773W        W 2770   3.918   2.826   0.213
 1774W        W 2771   4.656   6.791   7.052
 1775W        W 2772   3.806   6.906   2.221
 1776W        W 2773   1.634   1.361   7.526
 1777W        W 2774   6.781   5.229   7.787
 1778W        W 2775   0.824   4.641   7.502
 1779W        W 2776   3.539   2.936   6.742
 1780W        W 2777   0.574   4.829   6.865
 1781W        W 2778   0.809   6.249   6.416
 1782W        W 2779   1.505   1.445   5.910
 1783W        W 2780   6.421   3.439   1.378
 1784W        W 2781   2.523   3.767   3.990
 1785W        W 2782   5.718   6.797   7.143
 1786W        W 2783   3.156   3.795   2.145
 1787W        W 2784   7.337   2.077   0.571
 1788W        W 2785   7.699   6.299   0.657
 1789W        W 2786   5.039   2.898   5.793
 1790W        W 2787   4.276   5.978   5.638
 1791W        W 2788   1.000   2.528   3.516
 1792W        W 2789   5.976   1.385   1.665
 1793W        W 2790   2.449   1.452   6.961
 1794W        W 2791   7.434   7.999   7.757
 1795W        W 2792   6.953   3.751   4.740
 1796W        W 2793   3.286   7.186   5.262
 1797W        W 2794   3.228   1.384   4.333
 1798W        W 2795   4.557   0.474   6.112
 1799W        W 2796   2.732   1.795   4.676
 1800W        W 2797   6.096   7.198   1.694
 1801W        W 2798   0.218   3.341   0.548
 1802W        W 2799   1.149   1.280   0.176
 1803W        W 2800   6.651   5.012   3.663
 1804W        W 2801   2.243   6.374   6.846
 1805W        W 2802   3.839   5.018   1.902
 1806W        W 2803   6.737   1.683   5.535
 1807W        W 2804   2.236   1.807   3.504
 1808W        W 2805   3.303   4.917   6.917
 1809W        W 2806   6.465   4.263   1.682
 1810W        W 2807   4.609   3.604   7.491
 1811W        W 2808   0.145   7.014   7.565
 1812W        W 2809   6.803   1.985   6.028
 1813W        W 2810   6.118   6.671   2.613
 1814W        W 2811   1.076   6.421   0.699
 1815W        W 2812   4.283   4.278   0.635
 1816W        W 2813   0.041   3.567   4.054
 1817W        W 2814   7.584   1.423   3.453
 1818W        W 2815   5.750   0.903   2.899
 1819W        W 2816   2.062   0.753   5.628
 1820W        W 2817   6.958   3.903   5.267
 1821W        W 2818   1.268   3.395   4.717
 1822W        W 2819   4.620   4.195   1.225
 1823W        W 2820   0.701   2.712   7.109
 1824W        W 2821   4.886   3.186   5.348
 1825W        W 2822   3.319   6.605   1.799
 1826W        W 2823   0.096   0.840   5.805
 1827W        W 2824   3.081   6.574   6.422
 1828W        W 2825   5.625   4.828   4.497
 1829W        W 2826   5.034   5.779   4.941
 1830W        W 2827   7.385   6.463   0.108
 1831W        W 2828   0.993   4.627   2.170
 1832W        W 2829   1.239   3.952   2.832
 1833W        W 2830   4.080   1.861   5.925
 1834W        W 2831   6.219   3.480   1.869
 1835W        W 2832   0.039   1.014   4.501
 1836W        W 2833   3.275   5.192   5.873
 1837W        W 2834   1.488   3.470   6.015
 1838W        W 2835   5.521   7.260   0.821
 1839W        W 2836   1.212   4.380   1.303
 1840W        W 2837   1.089   6.075   1.719
 1841W        W 2838   0.263   5.949   2.745
 1842W        W 2839   4.371   5.161   7.115
 1843W        W 2840   5.958   1.234   0.640
 1844W        W 2841   3.764   1.533   2.223
 1845W        W 2842   7.117   4.665   0.600
 1846W        W 2843   5.474   0.387   4.764
 1847W        W 2844   7.461   4.369   3.499
 1848W        W 2845   5.084   2.527   6.522
 1849W        W 2846   2.245   1.882   6.034
 1850W        W 2847   1.216   2.837   3.160
 1851W        W 2848   7.207   7.464   0.255
 1852W        W 2849   5.989   2.246   0.315
 1853W        W 2850   0.639   0.516   3.984
 1854W        W 2851   5.772   5.408   1.892
 1855W        W 2852   0.563   6.360   6.866
 1856W        W 2853   4.232   7.719   1.172
 1857W        W 2854   0.231   0.396   6.987
 1858W        W 2855   4.848   2.928   6.281
 1859W        W 2856   1.862   5.139   2.330
 1860W        W 2857   5.347   1.805   7.285
 1861W        W 2858   5.484   5.382   1.431
 1862W        W 2859   4.147   1.825   2.859
 1863W        W 2860   2.121   5.639   6.736
 1864W        W 2861   0.173   6.455   2.522
 1865W        W 2862   3.278   2.746   0.980
 1866W        W 2863   0.910   2.543   2.820
 1867W        W 2864   7.288   0.628   2.954
 1868W        W 2865   6.087   0.257   5.507
 1869W        W 2866   1.905   5.102   4.144
 1870W        W 2867   1.514   6.414   4.897
 1871W        W 2868   3.148   2.064   6.582
 1872W        W 2869   7.778   2.212   3.494
 1873W        W 2870   2.633   6.592   6.671
 1874W        W 2871   3.049   3.194   0.397
 1875W        W 2872   7.161   2.308   6.846
 1876W        W 2873   5.751   4.509   2.904
 1877W        W 2874   1.516   6.114   0.282
 1878W        W 2875   2.008   2.416   2.989
 1879W        W 2876   6.247   5.436   5.905
 1880W        W 2877   0.508   3.635   5.074
 1881W        W 2878   5.797   3.576   0.022
 1882W        W 2879   6.622   0.755   5.958
 1883W        W 2880   1.246   4.714   4.776
 1884W        W 2881   2.197   0.056   1.894
 1885W        W 2882   1.817   4.992   1.822
 1886W        W 2883   4.865   2.099   6.601
 1887W        W 2884   6.064   3.808   1.584
 1888W        W 2885   5.454   0.482   0.221
 1889W        W 2886   4.674   1.634   4.049
 1890W        W 2887   4.324   1.275   2.658
 1891W        W 2888   6.648   5.476   3.956
 1892W        W 2889   3.206   0.200   7.426
 1893W        W 2890   3.348   5.392   4.159
 1894W        W 2891   6.829   1.081   2.116
 1895W        W 2892   3.873   3.403   4.280
 1896W        W 2893   0.761   5.834   1.365
 1897W        W 2894   2.897   5.189   1.945
 1898W        W 2895   6.924   5.663   7.516
 1899W        W 2896   0.252   6.321   5.505
 1900W        W 2897   0.999   1.575   1.240
 1901W        W 2898   2.669   5.857   0.711
 1902W        W 2899   2.109   6.761   4.220
 1903W        W 2900   1.275   3.983   5.953
 1904W        W 2901   7.166   7.340   7.073
 1905W        W 2902   4.955   7.670   5.810
 1906W        W 2903   6.068   6.120   1.895
 1907W        W 2904   3.845   4.224   0.864
 1908W        W 2905   4.206   1.064   4.467
 1909W        W 2906   3.553   7.069   3.098
 1910W        W 2907   0.902   5.098   5.379
 1911W        W 2908   0.218   5.814   7.459
 1912W        W 2909   3.240   5.366   7.827
 1913W        W 2910   6.828   2.538   2.613
 1914W        W 2911   7.382   1.826   7.628
 1915W        W 2912   7.585   2.101   4.553
 1916W        W 2913   0.652   1.996   3.002
 1917W        W 2914   3.335   7.377   3.873
 1918W        W 2915   1.988   3.482   3.790
 1919W        W 2916   6.788   4.567   1.136
 1920W        W 2917   6.986   1.091   7.327
 1921W        W 2918   3.232   3.637   1.184
 1922W        W 2919   7.208   6.114   2.773
 1923W        W 2920   2.721   6.087   2.596
 1924W        W 2921   2.496   3.248   1.568
 1925W        W 2922   5.125   4.333   6.740
 1926W        W 2923   3.246   3.966   4.592
 1927W        W 2924   4.933   3.135   0.230
 1928W        W 2925   5.919   0.474   3.160
 1929W        W 2926   2.226   5.983   3.793
 1930W        W 2927   6.694   0.054   2.632
 1931W        W 2928   4.480   4.619   1.488
 1932W        W 2929   7.046   1.351   2.748
 1933W        W 2930   3.568   5.426   3.695
 1934W        W 2931   5.804   2.326   4.417
 1935W        W 2932   2.377   6.324   2.837
 1936W        W 2933   2.756   1.468   7.538
 1937W        W 2934   2.851   1.354   4.767
 1938W        W 2935   1.365   5.575   2.878
 1939W        W 2936   5.550   0.934   0.903
 1940W        W 2937   2.230   4.743   2.211
 1941W        W 2938   1.994   3.242   5.618
 1942W        W 2939   7.504   0.718   2.275
 1943W        W 2940   3.090   7.742   7.182
 1944W        W 2941   4.484   4.262   1.770
 1945W        W 2942   2.129   7.321   4.267
 1946W        W 2943   1.609   5.640   1.037
 1947W        W 2944   6.337   6.748   3.548
 1948W        W 2945   2.731   3.539   2.157
 1949W        W 2946   4.734   1.451   7.433
 1950W        W 2947   5.494   0.598   4.215
 1951W        W 2948   4.716   6.765   3.543
 1952W        W 2949   1.042   4.241   4.080
 1953W        W 2950   7.744   3.892   3.563
 1954W        W 2951   0.779   0.999   0.453
 1955W        W 2952   5.931   6.818   6.623
 1956W        W 2953   1.279   7.200   7.412
 1957W        W 2954   2.386   7.083   7.388
 1958W        W 2955   3.090   7.656   1.864
 1959W        W 2956   4.389   6.038   6.102
 1960W        W 2957   3.083   3.534   2.502
 1961W        W 2958   5.890   4.705   6.356
 1962W        W 2959   1.229   0.181   0.542
 1963W        W 2960   1.669   5.554   4.272
 1964W        W 2961   1.354   1.459   6.841
 1965W        W 2962   1.082   0.725   7.076
 1966W        W 2963   0.538   5.265   0.141
 1967W        W 2964   6.805   6.437   2.152
 1968W        W 2965   3.837   6.798   3.835
 1969W        W 2966   7.244   0.813   4.263
 1970W        W 2967   5.303   5.041   3.127
 1971W        W 2968   3.117   3.294   7.520
 1972W        W 2969   2.739   3.922   6.057
 1973W        W 2970   0.376   5.804   6.950
 1974W        W 2971   1.110   3.821   1.276
 1975W        W 2972   1.421   1.628   3.957
 1976W        W 2973   0.104   6.058   0.834
 1977W        W 2974   3.947   3.026   4.696
 1978W        W 2975   5.989   6.834   2.167
 1979W        W 2976   1.529   5.814   1.707
 1980W        W 2977   6.769   6.851   5.832
 1981W        W 2978   6.058   0.478   4.867
 1982W        W 2979   4.480   1.822   4.931
 1983W        W 2980   7.475   1.578   0.488
 1984W        W 2981   3.558   2.223   5.276
 1985W        W 2982   1.804   0.351   5.506
 1986W        W 2983   1.537   7.087   1.849
 1987W        W 2984   6.088   4.661   1.547
 1988W        W 2985   5.708   1.903   0.037
 1989W        W 2986   5.630   6.787   1.121
 1990W        W 2987   4.373   0.793   0.964
 1991W        W 2988   4.664   1.779   1.867
 1992W        W 2989   6.258   2.288   0.773
 1993W        W 2990   7.704   1.951   6.328
 1994W        W 2991   5.886   0.027   5.063
 1995W        W 2992   0.372   2.585   6.091
 1996W        W 2993   0.018   7.813   7.121
 1997W        W 2994   1.773   5.616   6.378
 1998W        W 2995   1.520   5.386   2.095
 1999W        W 2996   1.019   1.694   5.050
 2000W        W 2997   7.173   7.619   3.381
 2001W        W 2998   7.083   1.412   3.457
 2002W        W 2999   2.583   0.053   0.162
 2003W        W 3000   7.267   2.039   4.888
 2004W        W 3001   7.338   6.605   1.920
 2005W        W 3002   5.544   1.009   4.693
 2006W        W 3003   1.641   7.805   5.591
 2007W        W 3004   5.860   1.826   3.177
 2008W        W 3005   1.119   1.322   1.653
 2009W        W 3006   6.616   3.000   2.510
 2010W        W 3007   7.880   4.695   2.447
 2011W        W 3008   1.089   0.951   6.147
 2012W        W 3009   7.939   7.609   1.269
 2013W        W 3010   7.814   6.561   6.840
 2014W        W 3011   4.960   4.899   5.403
 2015W        W 3012   3.399   1.465   7.873
 2016W        W 3013   4.192   6.397   4.677
 2017W        W 3014   6.565   5.266   1.696
 2018W        W 3015   2.230   5.745   7.698
 2019W        W 3016   1.069   1.086   6.610
 2020W        W 3017   2.942   1.370   0.471
 2021W        W 3018   7.490   3.705   5.539
 2022W        W 3019   3.392   6.196   5.279
 2023W        W 3020   6.058   4.792   2.478
 2024W        W 3021   2.781   0.949   5.994
 2025W        W 3022   6.257   2.546   7.049
 2026W        W 3023   4.510   0.641   0.463
 2027W        W 3024   3.231   4.870   3.951
 2028W        W 3025   2.786   2.278   2.540
 2029W        W 3026   3.359   7.246   2.620
 2030W        W 3027   1.111   5.001   6.637
 2031W        W 3028   1.914   4.505   0.423
 2032W        W 3029   6.547   1.250   2.513
 2033W        W 3030   3.953   4.801   4.660
 2034W        W 3031   3.942   5.517   7.113
 2035W        W 3032   0.980   5.934   6.746
 2036W        W 3033   4.230   3.791   5.564
 2037W        W 3034   4.058   2.877   5.157
 2038W        W 3035   0.227   0.752   3.516
 2039W        W 3036   2.263   0.605   6.523
 2040W        W 3037   0.232   0.842   4.000
 2041W        W 3038   2.121   3.572   5.233
 2042W        W 3039   6.693   0.490   2.870
 2043W        W 3040   2.684   4.019   1.933
 2044W        W 3041   1.815   1.539   3.692
 2045W        W 3042   2.143   5.431   0.147
 2046W        W 3043   6.948   5.099   0.420
 2047W        W 3044   4.020   3.477   7.739
 2048W        W 3045   7.252   3.724   3.317
 2049W        W 3046   0.162   1.208   6.194
 2050W        W 3047   4.949   4.012   3.649
 2051W        W 3048   6.930   3.290   1.548
 2052W        W 3049   5.167   2.924   7.698
 2053W        W 3050   6.875   2.443   7.941
 2054W        W 3051   2.224   7.372   2.325
 2055W        W 3052   1.354   6.380   3.694
 2056W        W 3053   0.232   0.326   0.117
 2057W        W 3054   6.595   7.303   4.501
 2058W        W 3055   7.065   3.438   6.826
 2059W        W 3056   2.483   2.831   2.485
 2060W        W 3057   4.043   3.532   1.679
 2061W        W 3058   7.006   7.441   1.834
 2062W        W 3059   2.497   5.128   0.319
 2063W        W 3060   4.160   1.781   2.363
 2064W        W 3061   6.145   3.224   7.673
 2065W        W 3062   7.013   5.180   2.507
 2066W        W 3063   2.883   2.815   3.299
 2067W        W 3064   4.945   3.942   1.648
 2068W        W 3065   6.393   6.526   5.815
 2069W        W 3066   1.610   4.718   1.373
 2070W        W 3067   1.421   4.692   0.411
 2071W        W 3068   3.969   2.968   3.260
 2072W        W 3069   0.744   3.989   0.786
 2073W        W 3070   3.964   0.095   7.596
 2074W        W 3071   6.964   1.535   2.299
 2075W        W 3072   1.916   6.162   6.509
 2076W        W 3073   0.810   3.740   4.701
 2077W        W 3074   3.886   2.596   6.532
 2078W        W 3075   4.173   0.688   4.726
 2079W        W 3076   6.142   3.025   2.139
 2080W        W 3077   2.978   5.242   6.632
 2081W        W 3078   7.896   6.912   3.206
 2082W        W 3079   6.887   0.308   4.326
 2083W        W 3080   7.839   1.862   0.694
 2084W        W 3081   6.764   7.893   6.301
 2085W        W 3082   2.869   5.454   3.157
 2086W        W 3083   6.847   7.061   6.775
 2087W        W 3084   5.428   4.338   6.311
 2088W        W 3085   0.696   2.593   5.201
 2089W        W 3086   3.725   7.776   2.289
 2090W        W 3087   3.485   1.510   4.750
 2091W        W 3088   5.561   2.458   2.033
 2092W        W 3089   0.203   4.385   2.512
 2093W        W 3090   7.213   2.023   6.405
 2094W        W 3091   3.345   1.759   6.980
 2095W        W 3092   7.265   3.383   4.131
 2096W        W 3093   0.897   2.437   1.927
 2097W        W 3094   6.744   5.944   5.570
 2098W        W 3095   3.267   7.841   2.957
 2099W        W 3096   5.191   4.403   4.922
 2100W        W 3097   4.155   3.388   0.822
 2101W        W 3098   4.041   0.098   2.881
 2102W        W 3099   5.980   0.222   6.923
 2103W        W 3100   1.931   5.643   1.890
 2104W        W 3101   5.361   5.747   4.392
 2105W        W 3102   5.443   6.904   6.586
 2106W        W 3103   2.904   0.136   3.613
 2107W        W 3104   3.982   0.049   1.331
 2108W        W 3105   0.950   7.602   7.897
 2109W        W 3106   7.028   7.809   1.031
 2110W        W 3107   1.715   3.751   2.946
 2111W        W 3108   1.969   0.800   7.492
 2112W        W 3109   4.339   5.586   4.381
 2113W        W 3110   5.755   4.057   4.010
 2114W        W 3111   6.375   0.152   3.029
 2115W        W 3112   6.007   2.726   6.585
 2116W        W 3113   0.631   2.561   6.552
 2117W        W 3114   6.940   7.160   3.148
 2118W        W 3115   0.904   0.203   6.894
 2119W        W 3116   6.977   2.464   1.216
 2120W        W 3117   4.050   4.918   1.443
 2121W        W 3118   6.036   4.268   4.576
 2122W        W 3119   7.041   7.097   7.540
 2123W        W 3120   3.354   2.013   1.790
 2124W        W 3121   2.768   0.619   3.835
 2125W        W 3122   5.449   2.810   6.303
 2126W        W 3123   0.665   0.563   4.547
 2127W        W 3124   1.060   6.492   1.365
 2128W        W 3125   7.109   0.781   0.947
 2129W        W 3126   7.685   3.752   0.675
 2130W        W 3127   0.872   0.546   1.706
 2131W        W 3128   7.572   0.771   0.087
 2132W        W 3129   5.756   2.698   0.226
 2133W        W 3130   6.558   6.847   0.143
 2134W        W 3131   1.786   7.842   0.605
 2135W        W 3132   1.247   2.453   5.273
 2136W        W 3133   7.451   7.665   4.820
 2137W        W 3134   1.708   0.644   5.006
 2138W        W 3135   2.120   6.678   2.532
 2139W        W 3136   6.799   7.672   5.475
 2140W        W 3137   0.806   3.828   6.025
 2141W        W 3138   4.331   5.525   0.889
 2142W        W 3139   7.492   0.128   5.132
 2143W        W 3140   5.073   7.462   4.394
 2144W        W 3141   6.397   7.263   3.116
 2145W        W 3142   5.363   1.553   5.650
 2146W        W 3143   5.110   0.027   7.707
 2147W        W 3144   4.911   1.143   4.080
 2148W        W 3145   4.792   2.132   4.068
 2149W        W 3146   1.492   0.154   5.789
 2150W        W 3147   0.327   2.872   7.453
 2151W        W 3148   2.571   4.005   2.386
 2152W        W 3149   1.078   7.080   2.087
 2153W        W 3150   0.613   0.002   0.178
 2154W        W 3151   6.944   3.436   0.304
 2155W        W 3152   2.419   6.278   0.534
 2156W        W 3153   7.835   2.327   2.343
 2157W        W 3154   4.846   5.551   4.475
 2158W        W 3155   5.207   3.082   6.648
 2159W        W 3156   3.010   2.529   6.167
 2160W        W 3157   1.520   3.293   3.084
 2161W        W 3158   5.039   4.198   2.823
 2162W        W 3159   7.788   2.970   6.560
 2163W        W 3160   4.204   0.818   0.112
 2164W        W 3161   6.707   0.517   4.802
 2165W        W 3162   4.422   0.979   3.282
 2166W        W 3163   1.565   6.430   4.329
 2167W        W 3164   0.408   0.875   3.054
 2168W        W 3165   6.818   5.697   1.894
 2169W        W 3166   4.923   0.493   1.603
 2170W        W 3167   6.733   6.893   7.191
 2171W        W 3168   5.080   6.180   0.174
 2172W        W 3169   1.728   0.347   1.988
 2173W        W 3170   1.136   2.339   1.479
 2174W        W 3171   4.916   3.628   2.192
 2175W        W 3172   4.574   7.926   4.492
 2176W        W 3173   6.431   2.981   4.706
 2177W        W 3174   4.453   1.194   1.762
 2178W        W 3175   3.291   6.397   4.633
 2179W        W 3176   6.050   6.236   2.412
 2180W        W 3177   3.663   7.116   1.159
 2181W        W 3178   0.318   6.306   3.936
 2182W        W 3179   0.132   4.937   6.495
 2183W        W 3180   1.314   4.224   6.464
 2184W        W 3181   5.599   6.659   2.415
 2185W        W 3182   7.719   2.776   5.212
 2186W        W 3183   6.858   0.999   4.632
 2187W        W 3184   6.632   4.112   7.472
 2188W        W 3185   4.731   1.141   2.898
 2189W        W 3186   3.605   6.627   0.859
 2190W        W 3187   5.144   0.091   0.880
 2191W        W 3188   5.644   4.654   5.854
 2192W        W 3189   6.440   5.876   3.756
 2193W        W 3190   7.455   4.821   1.507
 2194W        W 3191   7.360   2.670   0.803
 2195W        W 3192   7.054   1.237   0.668
 2196W        W 3193   3.747   0.504   7.963
 2197W        W 3194   0.305   2.608   4.757
 2198W        W 3195   3.042   6.882   7.897
 2199W        W 3196   4.485   1.081   3.947
 2200W        W 3197   1.196   2.100   3.814
 2201W        W 3198   2.814   2.144   1.301
 2202W        W 3199   7.560   2.897   0.353
 2203W        W 3200   3.531   2.557   3.964
 2204W        W 3201   4.115   3.401   3.527
 2205W        W 3202   4.010   0.363   7.172
 2206W        W 3203   2.665   1.281   2.603
 2207W        W 3204   6.451   7.251   5.908
 2208W        W 3205   4.643   2.299   1.643
 2209W        W 3206   5.734   6.775   3.586
 2210W        W 3207   3.903   3.805   0.033
 2211W        W 3208   6.143   5.036   1.992
 2212W        W 3209   1.369   0.912   4.711
 2213W        W 3210   3.060   7.139   1.803
 2214W        W 3211   7.712   2.916   1.059
 2215W        W 3212   6.502   4.965   6.060
 2216W        W 3213   3.713   3.025   7.632
 2217W        W 3214   1.917   1.758   4.161
 2218W        W 3215   4.830   5.991   4.145
 2219W        W 3216   6.005   5.173   6.258
 2220W        W 3217   6.293   5.731   2.574
 2221W        W 3218   6.605   0.380   5.674
 2222W        W 3219   1.946   6.233   2.305
 2223W        W 3220   6.194   2.331   4.114
 2224W        W 3221   6.335   2.501   4.544
 2225W        W 3222   7.197   7.111   5.707
 2226W        W 3223   3.845   7.229   3.597
 2227W        W 3224   3.094   5.030   7.484
 2228W        W 3225   1.483   2.462   2.911
 2229W        W 3226   7.127   5.552   6.250
 2230W        W 3227   6.832   3.459   3.281
 2231W        W 3228   7.644   1.662   4.360
 2232W        W 3229   1.927   5.742   3.512
 2233W        W 3230   6.951   5.347   4.430
 2234W        W 3231   4.527   7.290   3.814
 2235W        W 3232   4.809   7.388   6.248
 2236W        W 3233   1.508   0.918   0.706
 2237W        W 3234   2.419   6.193   7.567
 2238W        W 3235   1.471   1.984   5.645
 2239W        W 3236   6.239   7.153   2.653
 2240W        W 3237   6.896   5.240   6.613
 2241W        W 3238   0.248   6.419   4.520
 2242W        W 3239   6.414   5.671   0.829
 2243W        W 3240   5.853   5.479   3.467
 2244W        W 3241   5.027   6.128   3.666
 2245W        W 3242   6.952   7.493   2.838
 2246W        W 3243   6.462   3.965   1.228
 2247W        W 3244   1.542   2.613   4.929
 2248W        W 3245   2.854   6.739   5.971
 2249W        W 3246   4.171   7.735   0.390
 2250W        W 3247   6.433   1.727   2.370
 2251W        W 3248   3.951   3.773   3.846
 2252W        W 3249   3.476   6.216   6.247
 2253W        W 3250   4.144   1.086   0.563
 2254W        W 3251   5.976   4.273   1.778
 2255W        W 3252   4.231   3.468   6.724
 2256W        W 3253   7.483   5.725   2.533
 2257W        W 3254   4.136   3.286   2.536
 2258W        W 3255   0.953   1.296   4.738
 2259W        W 3256   4.059   6.338   7.776
 2260W        W 3257   6.695   3.304   5.453
 2261W        W 3258   5.764   7.248   1.329
 2262W        W 3259   2.926   2.115   7.123
 2263W        W 3260   2.477   6.826   2.954
 2264W        W 3261   5.555   3.660   3.024
 2265W        W 3262   2.376   4.450   5.033
 2266W        W 3263   5.390   3.030   1.382
 2267W        W 3264   2.685   5.626   4.663
 2268W        W 3265   4.984   1.447   5.905
 2269W        W 3266   7.443   7.093   3.193
 2270W        W 3267   5.739   3.897   4.912
 2271W        W 3268   1.410   4.859   2.240
 2272W        W 3269   2.423   0.289   3.616
 2273W        W 3270   1.967   3.293   3.298
 2274W        W 3271   1.714   3.865   5.086
 2275W        W 3272   6.123   4.246   6.524
 2276W        W 3273   7.133   3.427   5.196
 2277W        W 3274   3.815   5.509   3.243
 2278W        W 3275   3.029   1.021   7.718
 2279W        W 3276   0.292   7.669   4.888
 2280W        W 3277   7.219   4.737   3.237
 2281W        W 3278   7.135   7.534   6.400
 2282W        W 3279   2.107   2.008   0.655
 2283W        W 3280   5.652   6.236   1.100
 2284W        W 3281   3.255   7.550   6.398
 2285W        W 3282   3.218   6.107   1.907
 2286W        W 3283   1.544   0.199   5.038
 2287W        W 3284   1.450   0.460   4.087
 2288W        W 3285   2.841   6.672   1.246
 2289W        W 3286   1.278   3.882   4.863
 2290W        W 3287   5.001   5.580   7.208
 2291W        W 3288   6.966   4.513   7.226
 2292W        W 3289   5.764   7.175   5.399
 2293W        W 3290   4.330   1.230   4.911
 2294W        W 3291   1.903   2.693   0.976
 2295W        W 3292   5.820   0.175   0.058
 2296W        W 3293   0.478   6.759   5.044
 2297W        W 3294   5.564   5.823   5.305
 2298W        W 3295   4.043   5.097   0.883
 2299W        W 3296   5.302   6.684   0.721
 2300W        W 3297   5.586   1.293   3.450
 2301W        W 3298   2.518   0.477   4.889
 2302W        W 3299   0.700   3.652   7.780
 2303W        W 3300   3.209   1.862   4.540
 2304W        W 3301   1.488   5.189   6.388
 2305W        W 3302   1.044   1.307   4.171
 2306W        W 3303   3.809   7.745   2.842
 2307W        W 3304   3.752   0.503   6.073
 2308W        W 3305   7.441   5.738   4.790
 2309W        W 3306   0.513   1.830   4.811
 2310W        W 3307   3.101   5.711   1.584
 2311W        W 3308   3.629   3.848   0.435
 2312W        W 3309   0.525   2.920   5.693
 2313W        W 3310   6.967   2.028   1.001
 2314W        W 3311   2.406   5.881   1.700
 2315W        W 3312   4.833   2.440   3.589
 2316W        W 3313   3.858   0.726   2.009
 2317W        W 3314   1.931   6.158   1.784
 2318W        W 3315   2.208   0.347   1.461
 2319W        W 3316   5.854   4.893   3.268
 2320W        W 3317   1.214   5.196   5.003
 2321W        W 3318   2.459   0.814   2.590
 2322W        W 3319   6.746   2.628   6.981
 2323W        W 3320   7.678   3.352   3.801
 2324W        W 3321   3.599   4.221   3.202
 2325W        W 3322   4.835   6.475   6.102
 2326W        W 3323   2.079   7.093   2.774
 2327W        W 3324   0.333   0.955   2.018
 2328W        W 3325   6.668   1.202   5.647
 2329W        W 3326   3.288   3.576   0.228
 2330W        W 3327   5.373   4.605   5.382
 2331W        W 3328   4.640   3.769   4.008
 2332W        W 3329   1.031   7.581   2.617
 2333W        W 3330   1.216   3.720   3.284
 2334W        W 3331   6.590   5.412   2.234
 2335W        W 3332   6.677   7.587   0.570
 2336W        W 3333   4.944   2.586   4.064
 2337W        W 3334   4.989   1.796   3.641
 2338W        W 3335   5.051   0.339   4.028
 2339W        W 3336   3.642   3.473   2.554
 2340W        W 3337   3.650   0.017   5.881
 2341W        W 3338   1.544   5.166   0.676
 2342W        W 3339   4.218   7.699   3.800
 2343W        W 3340   0.378   6.253   4.988
 2344W        W 3341   7.775   6.169   2.697
 2345W        W 3342   6.368   3.887   6.190
 2346W        W 3343   0.429   1.961   2.520
 2347W        W 3344   4.657   2.781   7.385
 2348W        W 3345   1.677   1.401   4.370
 2349W        W 3346   2.210   7.171   6.605
 2350W        W 3347   2.523   4.450   1.529
 2351W        W 3348   7.815   3.313   6.166
 2352W        W 3349   6.936   1.818   5.127
 2353W        W 3350   6.375   5.073   3.197
 2354W        W 3351   0.129   3.465   3.483
 2355W        W 3352   7.636   6.668   2.387
 2356W        W 3353   6.046   2.979   1.639
 2357W        W 3354   1.386   7.552   7.050
 2358W        W 3355   3.608   5.888   6.603
 2359W        W 3356   3.419   3.750   6.563
 2360W        W 3357   2.886   6.345   3.040
 2361W        W 3358   2.489   5.551   3.482
 2362W        W 3359   7.345   7.023   2.639
 2363W        W 3360   1.671   1.758   0.733
 2364W        W 3361   4.665   0.310   2.633
 2365W        W 3362   7.587   2.137   1.851
 2366W        W 3363   1.426   4.453   7.332
 2367W        W 3364   1.582   1.811   6.262
 2368W        W 3365   7.780   3.028   2.000
 2369W        W 3366   5.125   4.773   4.623
 2370W        W 3367   5.635   0.753   5.704
 2371W        W 3368   6.228   5.542   5.016
 2372W        W 3369   2.889   1.781   2.951
 2373W        W 3370   6.794   5.913   0.044
 2374W        W 3371   3.796   7.309   6.534
 2375W        W 3372   3.983   2.134   7.231
 2376W        W 3373   7.516   3.142   2.407
 2377W        W 3374   6.396   3.310   4.315
 2378W        W 3375   6.085   6.156   1.349
 2379W        W 3376   5.216   2.380   5.041
 2380W        W 3377   3.280   5.508   2.105
 2381W        W 3378   2.648   4.766   7.577
 2382W        W 3379   6.948   5.027   1.369
 2383W        W 3380   7.701   6.138   2.143
 2384W        W 3381   3.161   6.835   0.380
 2385W        W 3382   0.737   3.278   4.419
 2386W        W 3383   2.713   1.525   3.347
 2387W        W 3384   6.111   6.953   5.798
 2388W        W 3385   4.017   1.925   0.666
 2389W        W 3386   2.654   5.614   5.578
 2390W        W 3387   1.253   7.497   6.562
 2391W        W 3388   2.128   1.851   0.100
 2392W        W 3389   0.079   3.171   7.051
 2393W        W 3390   2.124   1.533   0.523
 2394W        W 3391   1.473   0.910   7.377
 2395W        W 3392   7.246   2.710   7.094
 2396W        W 3393   2.497   2.480   7.671
 2397W        W 3394   0.382   2.418   2.772
 2398W        W 3395   6.748   0.224   3.354
 2399W        W 3396   7.149   4.594   1.848
 2400W        W 3397   7.420   6.188   3.252
 2401W        W 3398   2.365   4.870   1.741
 2402W        W 3399   2.344   5.361   3.023
 2403W        W 3400   4.668   2.637   5.943
 2404W        W 3401   5.416   0.299   1.415
 2405W        W 3402   0.714   0.625   1.251
 2406W        W 3403   6.664   1.625   4.260
 2407W        W 3404   0.735   2.176   3.923
 2408W        W 3405   2.472   4.007   7.906
 2409W        W 3406   5.545   7.827   1.351
 2410W        W 3407   0.124   0.319   5.971
 2411W        W 3408   3.785   5.977   1.942
 2412W        W 3409   6.416   1.162   0.953
 2413W        W 3410   4.770   0.497   1.006
 2414W        W 3411   6.089   6.457   7.037
 2415W        W 3412   4.948   4.407   4.291
 2416W        W 3413   4.021   0.525   1.183
 2417W        W 3414   6.944   0.792   2.590
 2418W        W 3415   0.982   5.379   3.104
 2419W        W 3416   1.874   6.790   5.058
 2420W        W 3417   7.388   7.790   0.654
 2421W        W 3418   5.809   3.002   6.001
 2422W        W 3419   1.058   6.603   5.652
 2423W        W 3420   5.939   0.068   0.571
 2424W        W 3421   5.789   1.072   3.986
 2425W        W 3422   1.422   7.697   1.736
 2426W        W 3423   2.571   6.662   5.562
 2427W        W 3424   1.515   5.928   3.133
 2428W        W 3425   0.562   5.079   2.993
 2429W        W 3426   0.048   2.331   1.604
 2430W        W 3427   5.876   3.898   5.409
 2431W        W 3428   1.970   3.726   1.046
 2432W        W 3429   6.328   3.468   2.389
 2433W        W 3430   7.739   4.039   4.773
 2434W        W 3431   0.449   6.542   6.282
 2435W        W 3432   3.318   0.495   0.563
 2436W        W 3433   1.876   1.648   5.698
 2437W        W 3434   6.973   7.115   6.179
 2438W        W 3435   0.422   0.924   4.851
 2439W        W 3436   5.920   3.782   2.504
 2440W        W 3437   4.475   6.827   5.437
 2441W        W 3438   1.503   1.777   7.208
 2442W        W 3439   3.046   5.043   3.254
 2443W        W 3440   3.563   3.407   1.516
 2444W        W 3441   0.611   1.831   6.543
 2445W        W 3442   6.870   7.807   7.817
 2446W        W 3443   0.260   2.685   6.922
 2447W        W 3444   1.723   7.499   2.662
 2448W        W 3445   0.535   3.169   6.935
 2449W        W 3446   4.471   3.153   5.026
 2450W        W 3447   1.766   0.051   7.825
 2451W        W 3448   2.558   7.414   1.910
 2452W        W 3449   0.105   3.608   2.334
 2453W        W 3450   5.667   1.540   7.806
 2454W        W 3451   3.560   7.734   1.169
 2455W        W 3452   7.490   5.391   5.845
 2456W        W 3453   6.955   5.023   1.962
 2457W        W 3454   2.977   3.056   5.062
 2458W        W 3455   0.345   7.358   4.519
 2459W        W 3456   4.143   5.910   4.855
 2460W        W 3457   7.733   5.711   0.834
 2461W        W 3458   2.811   0.996   3.451
 2462W        W 3459   1.947   3.795   2.443
 2463W        W 3460   0.812   1.661   2.568
 2464W        W 3461   4.363   5.885   3.957
 2465W        W 3462   3.529   3.205   7.190
 2466W        W 3463   4.083   5.937   0.694
 2467W        W 3464   5.164   0.648   5.404
 2468W        W 3465   4.376   6.682   0.408
 2469W        W 3466   1.649   6.723   0.546
 2470W        W 3467   3.604   2.147   6.891
 2471W        W 3468   1.018   7.369   0.304
 2472W        W 3469   0.497   7.269   5.866
 2473W        W 3470   4.168   1.601   1.884
 2474W        W 3471   1.307   0.519   7.608
 2475W        W 3472   3.632   4.877   5.559
 2476W        W 3473   1.813   1.007   5.984
 2477W        W 3474   6.402   2.012   1.215
 2478W        W 3475   7.448   2.473   3.769
 2479W        W 3476   5.906   1.622   7.385
 2480W        W 3477   3.027   5.059   0.292
 2481W        W 3478   5.255   0.737   2.779
 2482W        W 3479   1.573   6.450   1.006
 2483W        W 3480   5.969   5.424   0.189
 2484W        W 3481   2.864   7.593   2.671
 2485W        W 3482   2.968   3.367   1.743
 2486W        W 3483   5.937   4.965   0.338
 2487W        W 3484   0.337   0.353   1.144
 2488W        W 3485   0.361   1.744   7.038
 2489W        W 3486   5.133   6.178   1.843
 2490W        W 3487   5.234   1.069   5.671
 2491W        W 3488   4.977   0.911   0.710
 2492W        W 3489   6.265   4.616   0.497
 2493W        W 3490   0.693   2.947   6.170
 2494W        W 3491   0.556   1.485   3.769
 2495W        W 3492   5.365   5.581   1.020
 2496W        W 3493   0.652   7.721   6.337
 2497W        W 3494   4.213   6.881   7.181
 2498W        W 3495   5.180   2.272   4.394
 2499W        W 3496   3.671   0.622   3.031
 2500W        W 3497   1.914   5.865   0.026
 2501W        W 3498   7.019   2.481   5.075
 2502W        W 3499   1.423   7.909   2.635
 2503W        W 3500   5.348   3.596   5.300
 2504W        W 3501   2.742   3.623   7.659
 2505W        W 3502   2.320   0.459   7.355
 2506W        W 3503   7.126   4.794   0.006
 2507W        W 3504   2.188   4.181   5.445
 2508W        W 3505   4.994   5.218   1.131
 2509W        W 3506   2.401   7.662   2.614
 2510W        W 3507   2.248   3.767   3.332
 2511W        W 3508   2.496   0.292   6.236
 2512W        W 3509   2.027   6.950   7.004
 2513W        W 3510   5.732   7.474   3.623
 2514W        W 3511   7.351   5.460   0.594
 2515W        W 3512   4.112   5.575   5.922
 2516W        W 3513   6.792   3.656   4.180
 2517W        W 3514   4.207   2.737   1.044
 2518W        W 3515   3.397   7.189   6.759
 2519W        W 3516   7.105   2.168   5.639
 2520W        W 3517   6.606   0.809   6.475
 2521W        W 3518   7.095   3.638   1.883
 2522W        W 3519   3.593   1.170   1.919
 2523W        W 3520   2.097   5.184   6.334
 2524W        W 3521   1.702   3.344   5.098
 2525W        W 3522   3.425   4.146   7.431
 2526W        W 3523   4.772   6.931   2.233
 2527W        W 3524   4.193   1.589   4.560
 2528W        W 3525   4.607   1.358   4.465
 2529W        W 3526   4.005   6.727   5.289
 2530W        W 3527   6.422   1.648   5.957
 2531W        W 3528   1.393   2.884   0.928
 2532W        W 3529   3.058   2.220   2.966
 2533W        W 3530   0.782   4.666   5.703
 2534W        W 3531   5.589   7.199   3.195
 2535W        W 3532   5.912   6.695   5.431
 2536W        W 3533   6.210   6.125   0.825
 2537W        W 3534   4.046   4.061   1.727
 2538W        W 3535   3.890   2.319   1.078
 2539W        W 3536   5.753   5.306   4.319
 2540W        W 3537   0.509   3.820   0.246
 2541W        W 3538   0.234   1.455   4.714
 2542W        W 3539   4.380   7.188   1.236
 2543W        W 3540   2.671   1.025   0.761
 2544W        W 3541   1.379   4.820   5.301
 2545W        W 3542   0.570   7.420   0.092
 2546W        W 3543   7.607   1.091   5.214
 2547W        W 3544   1.402   5.197   2.583
 2548W        W 3545   5.702   2.681   2.897
 2549W        W 3546   5.216   4.017   4.122
 2550W        W 3547   0.181   7.594   3.207
 2551W        W 3548   0.159   5.154   6.984
 2552W        W 3549   5.437   1.667   5.133
 2553W        W 3550   1.156   7.763   4.077
 2554W        W 3551   2.675   1.722   1.055
 2555W        W 3552   6.451   5.179   0.423
 2556W        W 3553   1.880   6.525   1.425
 2557W        W 3554   0.325   7.020   6.262
 2558W        W 3555   4.205   2.435   0.133
 2559W        W 3556   3.630   3.316   3.366
 2560W        W 3557   1.731   4.155   1.392
 2561W        W 3558   6.251   4.524   3.358
 2562W        W 3559   2.871   3.415   5.350
 2563W        W 3560   0.198   5.841   5.600
 2564W        W 3561   6.189   2.807   3.303
 2565W        W 3562   2.589   2.262   0.769
 2566W        W 3563   0.083   7.937   2.788
 2567W        W 3564   1.427   7.550   7.745
 2568W        W 3565   7.312   3.500   2.806
 2569W        W 3566   2.270   7.639   3.887
 2570W        W 3567   0.281   1.747   3.311
 2571W        W 3568   5.383   6.156   3.094
 2572W        W 3569   3.305   6.341   6.872
 2573W        W 3570   5.276   7.496   3.361
 2574W        W 3571   3.836   4.279   7.706
 2575W        W 3572   2.683   4.563   2.004
 2576W        W 3573   4.001   7.482   5.566
 2577W        W 3574   1.161   0.759   2.502
 2578W        W 3575   4.167   6.508   5.791
 2579W        W 3576   2.758   4.150   3.712
 2580W        W 3577   0.785   0.665   6.697
 2581W        W 3578   3.474   1.128   1.159
 2582W        W 3579   1.960   1.695   1.705
 2583W        W 3580   7.498   5.787   5.313
 2584W        W 3581   3.669   1.598   1.698
 2585W        W 3582   6.566   6.957   1.403
 2586W        W 3583   5.279   4.300   5.811
 2587W        W 3584   2.570   5.866   3.061
 2588W        W 3585   3.566   6.301   0.415
 2589W        W 3586   5.530   4.333   4.443
 2590W        W 3587   1.692   2.810   0.502
 2591W        W 3588   3.939   6.346   6.518
 2592W        W 3589   5.311   5.943   1.339
 2593W        W 3590   4.580   5.062   2.598
 2594W        W 3591   4.269   3.752   4.336
 2595W        W 3592   2.388   1.718   5.486
 2596W        W 3593   4.038   4.363   2.595
 2597W        W 3594   1.036   2.117   4.309
 2598W        W 3595   2.507   5.349   1.600
 2599W        W 3596   5.623   3.214   3.584
 2600W        W 3597   4.043   7.312   6.964
 2601W        W 3598   6.120   0.530   5.931
 2602W        W 3599   5.972   0.220   7.443
 2603W        W 3600   7.751   4.845   6.838
 2604W        W 3601   0.706   3.205   5.310
 2605W        W 3602   3.636   5.054   7.798
 2606W        W 3603   2.852   5.828   2.154
 2607W        W 3604   2.323   3.788   5.739
 2608W        W 3605   3.314   3.757   3.485
 2609W        W 3606   3.992   2.676   3.703
 2610W        W 3607   7.847   6.382   4.938
 2611W        W 3608   6.192   1.503   5.375
 2612W        W 3609   7.272   5.695   3.401
 2613W        W 3610   6.971   1.765   6.738
 2614W        W 3611   5.407   0.866   7.115
 2615W        W 3612   2.941   3.943   5.629
 2616W        W 3613   6.937   2.368   2.131
 2617W        W 3614   2.582   6.225   0.985
 2618W        W 3615   2.931   3.060   2.293
 2619W        W 3616   2.894   2.756   0.642
 2620W        W 3617   4.837   1.539   3.198
 2621W        W 3618   6.963   6.473   7.093
 2622W        W 3619   2.811   7.005   5.059
 2623W        W 3620   0.876   7.198   7.053
 2624W        W 3621   5.157   6.276   1.024
 2625W        W 3622   5.243   7.000   3.580
 2626W        W 3623   7.417   4.170   5.291
 2627W        W 3624   3.974   5.042   3.227
 2628W        W 3625   6.913   4.042   7.070
 2629W        W 3626   7.155   6.183   7.506
 2630W        W 3627   6.335   5.809   0.360
 2631W        W 3628   4.672   6.359   0.959
 2632W        W 3629   4.944   0.346   4.545
 2633W        W 3630   7.732   1.634   1.085
 2634W        W 3631   3.535   5.832   7.183
 2635W        W 3632   4.285   1.510   0.373
 2636W        W 3633   6.059   7.050   0.013
 2637W        W 3634   2.436   1.738   1.533
 2638W        W 3635   0.779   4.868   6.282
 2639W        W 3636   3.260   4.584   3.289
 2640W        W 3637   6.609   2.451   5.908
 2641W        W 3638   0.387   3.370   7.539
 2642W        W 3639   1.338   5.068   4.095
 2643W        W 3640   4.436   4.952   4.700
 2644W        W 3641   5.545   2.630   5.819
 2645W        W 3642   5.132   2.349   6.064
 2646W        W 3643   0.081   4.084   7.220
 2647W        W 3644   2.168   1.323   7.575
 2648W        W 3645   1.284   0.581   5.247
 2649W        W 3646   1.451   5.430   3.326
 2650W        W 3647   6.564   4.721   1.683
 2651W        W 3648   3.305   6.248   3.908
 2652W        W 3649   5.047   1.882   4.796
 2653W        W 3650   7.404   4.451   6.934
 2654W        W 3651   2.539   1.081   3.998
 2655W        W 3652   7.445   5.691   7.374
 2656W        W 3653   1.779   5.837   7.500
 2657W        W 3654   5.602   1.385   0.253
 2658W        W 3655   4.773   4.473   2.067
 2659W        W 3656   6.054   0.955   2.444
 2660W        W 3657   0.097   5.353   7.504
 2661W        W 3658   6.928   6.967   5.344
 2662W        W 3659   1.612   1.833   0.224
 2663W        W 3660   4.544   4.298   2.798
 2664W        W 3661   3.662   7.024   7.143
 2665W        W 3662   7.754   2.915   4.730
 2666W        W 3663   1.880   7.500   6.780
 2667W        W 3664   1.968   1.488   6.143
 2668W        W 3665   3.397   2.205   7.298
 2669W        W 3666   2.638   5.580   2.656
 2670W        W 3667   6.586   7.082   1.879
 2671W        W 3668   4.848   0.703   3.729
 2672W        W 3669   3.136   6.729   2.686
 2673W        W 3670   2.348   4.055   1.148
 2674W        W 3671   1.020   6.960   7.857
 2675W        W 3672   0.961   3.154   7.178
 2676W        W 3673   0.508   2.250   4.451
 2677W        W 3674   6.508   3.033   1.689
 2678W        W 3675   5.181   0.446   6.438
 2679W        W 3676   4.795   2.756   5.034
 2680W        W 3677   3.099   7.176   5.902
 2681W        W 3678   5.938   5.882   3.728
 2682W        W 3679   3.253   7.249   7.232
 2683W        W 3680   3.636   7.107   4.286
 2684W        W 3681   2.627   2.178   0.225
 2685W        W 3682   1.843   3.847   5.953
 2686W        W 3683   1.382   2.455   5.771
 2687W        W 3684   5.668   0.645   2.311
 2688W        W 3685   7.350   7.728   2.054
 2689W        W 3686   1.239   2.793   6.385
 2690W        W 3687   4.636   2.873   3.803
 2691W        W 3688   6.603   2.841   0.006
 2692W        W 3689   0.430   5.011   7.394
 2693W        W 3690   0.116   2.283   0.522
 2694W        W 3691   0.863   5.963   2.829
 2695W        W 3692   7.716   4.485   2.925
 2696W        W 3693   3.848   3.998   2.857
 2697W        W 3694   3.340   2.351   1.299
 2698W        W 3695   6.099   2.473   1.796
 2699W        W 3696   7.255   5.264   7.623
 2700W        W 3697   5.202   0.037   2.373
 2701W        W 3698   7.401   2.665   2.003
 2702W        W 3699   4.008   3.318   0.342
 2703W        W 3700   3.132   4.363   5.842
 2704W        W 3701   0.499   4.755   1.322
 2705W        W 3702   0.352   3.961   6.317
 2706W        W 3703   4.134   6.265   2.040
 2707W        W 3704   3.070   7.349   3.021
 2708W        W 3705   5.671   5.060   2.273
 2709W        W 3706   4.417   5.805   3.064
 2710W        W 3707   0.969   1.205   2.800
 2711W        W 3708   0.752   5.058   0.935
 2712W        W 3709   4.385   6.437   5.180
 2713W        W 3710   7.356   5.329   4.073
 2714W        W 3711   4.171   6.358   1.576
 2715W        W 3712   4.412   1.606   7.945
 2716W        W 3713   0.825   0.879   2.137
 2717W        W 3714   3.461   1.513   3.831
 2718W        W 3715   7.386   1.230   2.345
 2719W        W 3716   0.189   2.819   5.303
 2720W        W 3717   2.350   6.068   4.704
 2721W        W 3718   4.809   7.666   4.916
 2722W        W 3719   1.055   2.595   4.830
 2723W        W 3720   1.461   1.022   3.999
 2724W        W 3721   3.793   7.193   5.104
 2725W        W 3722   2.762   6.512   1.723
 2726W        W 3723   1.038   2.119   2.606
 2727W        W 3724   4.810   3.757   3.169
 2728W        W 3725   1.083   5.656   5.157
 2729W        W 3726   4.510   6.921   4.274
 2730W        W 3727   2.196   0.491   2.292
 2731W        W 3728   3.878   4.063   2.239
 2732W        W 3729   6.480   6.745   3.036
 2733W        W 3730   6.777   7.642   3.739
 2734W        W 3731   7.490   3.208   7.014
 2735W        W 3732   5.611   6.297   3.644
 2736W        W 3733   1.337   5.535   6.050
 2737W        W 3734   4.681   5.141   7.481
 2738W        W 3735   4.766   5.849   5.820
 2739W        W 3736   1.903   0.933   3.265
 2740W        W 3737   6.676   2.153   7.067
 2741W        W 3738   0.618   7.271   2.359
 2742W        W 3739   7.397   1.834   5.380
 2743W        W 3740   5.399   2.034   2.209
 2744W        W 3741   0.097   1.645   2.686
 2745W        W 3742   1.755   2.388   2.059
 2746W        W 3743   7.627   5.361   6.743
 2747W        W 3744   6.924   3.067   7.126
 2748W        W 3745   7.252   4.129   4.787
 2749W        W 3746   6.126   7.167   3.521
 2750W        W 3747   3.113   4.473   1.188
 2751W        W 3748   1.579   4.825   6.908
 2752W        W 3749   0.923   3.950   6.474
 2753W        W 3750   6.915   2.815   1.792
 2754W        W 3751   1.892   1.084   4.711
 2755W        W 3752   4.226   4.744   6.801
 2756W        W 3753   6.264   4.465   6.034
 2757W        W 3754   7.156   1.072   1.734
 2758W        W 3755   1.471   7.468   0.395
 2759W        W 3756   0.900   0.799   4.854
 2760W        W 3757   4.417   7.592   1.710
 2761W        W 3758   3.628   7.147   7.756
 2762W        W 3759   4.921   4.007   5.106
 2763W        W 3760   0.275   5.333   4.146
 2764W        W 3761   1.994   4.544   1.703
 2765W        W 3762   2.027   1.735   7.303
 2766W        W 3763   6.999   5.985   7.067
 2767W        W 3764   1.845   6.662   7.885
 2768W        W 3765   1.938   6.318   0.345
 2769W        W 3766   3.143   5.886   6.904
 2770W        W 3767   3.971   3.809   6.387
 2771W        W 3768   5.227   6.506   2.741
 2772W        W 3769   7.761   5.808   5.718
 2773W        W 3770   2.470   7.346   3.011
 2774W        W 3771   2.774   0.661   1.141
 2775W        W 3772   1.544   1.318   6.401
 2776W        W 3773   5.895   2.844   5.518
 2777W        W 3774   4.647   1.710   2.690
 2778W        W 3775   1.334   1.755   3.481
 2779W        W 3776   6.828   7.374   1.374
 2780W        W 3777   7.032   0.145   7.198
 2781W        W 3778   5.015   4.413   1.647
 2782W        W 3779   2.377   7.658   3.376
 2783W        W 3780   6.726   5.555   2.871
 2784W        W 3781   4.227   7.814   2.319
 2785W        W 3782   3.500   6.059   0.857
 2786W        W 3783   0.531   2.883   2.695
 2787W        W 3784   2.778   1.518   2.149
 2788W        W 3785   3.114   0.284   1.877
 2789W        W 3786   3.112   5.929   0.543
 2790W        W 3787   6.688   4.732   0.235
 2791W        W 3788   3.198   1.667   5.606
 2792W        W 3789   1.455   7.857   0.155
 2793W        W 3790   1.257   7.387   3.048
 2794W        W 3791   0.682   6.778   0.893
 2795W        W 3792   0.761   6.207   5.806
 2796W        W 3793   1.941   2.051   5.285
 2797W        W 3794   3.022   2.365   1.678
 2798W        W 3795   0.268   6.081   1.350
 2799W        W 3796   7.427   2.251   1.110
 2800W        W 3797   3.384   0.432   5.697
 2801W        W 3798   0.300   2.243   2.072
 2802W        W 3799   7.054   2.484   6.316
 2803W        W 3800   5.241   7.376   6.419
 2804W        W 3801   7.014   4.872   5.627
 2805W        W 3802   7.304   7.566   5.508
 2806W        W 3803   5.210   6.529   3.447
 2807W        W 3804   2.503   3.328   4.440
 2808W        W 3805   4.221   4.088   4.778
 2809W        W 3806   5.496   6.863   5.721
 2810W        W 3807   1.265   6.610   6.551
 2811W        W 3808   2.553   2.281   1.779
 2812W        W 3809   7.995   4.407   0.012
 2813W        W 3810   1.432   6.112   2.098
 2814W        W 3811   4.557   6.856   5.957
 2815W        W 3812   7.828   4.101   1.053
 2816W        W 3813   5.467   4.236   1.979
 2817W        W 3814   3.857   5.043   7.024
 2818W        W 3815   2.349   3.674   6.796
 2819W        W 3816   1.312   3.725   6.570
 2820W        W 3817   3.829   3.872   5.880
 2821W        W 3818   3.929   1.036   1.031
 2822W        W 3819   6.109   1.360   2.777
 2823W        W 3820   4.303   6.481   6.838
 2824W        W 3821   4.388   3.358   3.107
 2825W        W 3822   2.069   5.553   3.951
 2826W        W 3823   1.171   3.364   5.533
 2827W        W 3824   7.431   1.347   7.389
 2828W        W 3825   2.386   1.780   2.018
 2829W        W 3826   3.438   0.478   6.425
 2830W        W 3827   2.782   3.308   4.014
 2831W        W 3828   3.462   4.041   7.919
 2832W        W 3829   5.130   1.191   1.112
 2833W        W 3830   6.228   2.505   5.386
 2834W        W 3831   3.890   6.814   6.146
 2835W        W 3832   5.211   7.900   6.282
 2836W        W 3833   2.451   1.045   0.253
 2837W        W 3834   5.116   0.269   2.912
 2838W        W 3835   0.544   5.485   5.421
 2839W        W 3836   4.003   5.369   0.467
 2840W        W 3837   4.037   6.694   4.344
 2841W        W 3838   3.452   6.677   6.000
 2842W        W 3839   5.389   0.482   1.891
 2843W        W 3840   5.394   3.290   6.177
 2844W        W 3841   7.941   6.055   5.316
 2845W        W 3842   2.360   6.946   4.741
 2846W        W 3843   6.525   1.137   3.432
 2847W        W 3844   1.075   6.621   1.856
 2848W        W 3845   0.939   4.389   0.443
 2849W        W 3846   4.791   4.159   7.194
 2850W        W 3847   4.658   5.974   0.586
 2851W        W 3848   7.689   6.814   0.833
 2852W        W 3849   6.705   0.463   6.850
 2853W        W 3850   7.997   0.619   5.394
 2854W        W 3851   0.723   0.353   7.704
 2855W        W 3852   2.138   5.733   4.407
 2856W        W 3853   6.503   0.341   6.225
 2857W        W 3854   3.811   7.291   6.022
 2858W        W 3855   6.703   6.035   2.894
 2859W        W 3856   5.022   0.460   7.970
 2860W        W 3857   4.594   5.518   1.316
 2861W        W 3858   3.435   4.136   1.398
 2862W        W 3859   3.846   3.499   2.137
 2863W        W 3860   3.785   3.769   4.648
 2864W        W 3861   5.190   1.025   7.842
 2865W        W 3862   1.686   3.701   0.635
 2866W        W 3863   5.675   0.338   0.975
 2867W        W 3864   5.453   2.644   4.223
 2868W        W 3865   3.707   1.731   7.446
 2869W        W 3866   4.641   0.832   4.653
 2870W        W 3867   5.799   1.516   6.729
 2871W        W 3868   1.796   7.496   0.951
 2872W        W 3869   5.885   2.144   1.156
 2873W        W 3870   7.584   6.276   1.574
 2874W        W 3871   2.254   3.860   6.311
 2875W        W 3872   1.839   6.214   2.803
 2876W        W 3873   6.126   0.209   3.525
 2877W        W 3874   5.687   3.382   2.159
 2878W        W 3875   4.016   6.331   0.237
 2879W        W 3876   5.477   1.529   4.653
 2880W        W 3877   4.801   5.121   1.656
 2881W        W 3878   3.910   0.086   4.446
 2882W        W 3879   6.373   4.905   7.174
 2883W        W 3880   1.493   0.848   2.986
 2884W        W 3881   2.774   5.314   6.002
 2885W        W 3882   7.739   7.456   0.833
 2886W        W 3883   0.982   3.436   3.674
 2887W        W 3884   3.916   3.835   3.337
 2888W        W 3885   6.796   2.900   6.122
 2889W        W 3886   7.473   1.552   3.920
 2890W        W 3887   6.432   6.538   1.062
 2891W        W 3888   0.220   1.001   5.359
 2892W        W 3889   0.941   3.356   0.176
 2893W        W 3890   2.667   6.644   2.569
 2894W        W 3891   4.850   1.182   3.539
 2895W        W 3892   3.463   1.956   2.433
 2896W        W 3893   0.250   1.530   1.152
 2897W        W 3894   1.844   4.701   2.684
 2898W        W 3895   4.637   7.129   1.814
 2899W        W 3896   4.674   3.536   2.702
 2900W        W 3897   0.630   6.261   1.041
 2901W        W 3898   5.158   3.024   3.637
 2902W        W 3899   7.152   6.783   3.943
 2903W        W 3900   3.817   5.864   3.572
 2904W        W 3901   2.636   7.239   3.517
 2905W        W 3902   5.943   0.509   3.955
 2906W        W 3903   0.722   6.187   4.321
 2907W        W 3904   7.444   6.524   6.521
 2908W        W 3905   2.067   6.578   5.473
 2909W        W 3906   2.512   7.486   5.134
 2910W        W 3907   0.387   2.810   1.919
 2911W        W 3908   7.310   4.114   7.364
 2912W        W 3909   5.206   1.422   7.569
 2913W        W 3910   6.324   0.187   4.276
 2914W        W 3911   4.173   2.329   6.114
 2915W        W 3912   6.491   6.887   2.316
 2916W        W 3913   7.849   5.118   0.833
 2917W        W 3914   4.318   3.264   4.015
 2918W        W 3915   6.852   3.196   4.480
 2919W        W 3916   7.929   3.969   3.127
 2920W        W 3917   6.516   0.948   7.197
 2921W        W 3918   2.589   0.126   4.024
 2922W        W 3919   3.821   6.636   1.848
 2923W        W 3920   7.194   2.185   2.763
 2924W        W 3921   2.995   7.608   3.578
 2925W        W 3922   5.449   3.143   4.019
 2926W        W 3923   3.265   4.502   4.341
 2927W        W 3924   5.207   5.080   7.280
 2928W        W 3925   5.853   0.378   1.704
 2929W        W 3926   2.337   2.456   4.426
 2930W        W 3927   4.266   5.567   3.487
 2931W        W 3928   2.282   7.631   6.474
 2932W        W 3929   6.912   6.537   1.504
 2933W        W 3930   3.824   4.257   4.527
 2934W        W 3931   4.083   6.909   0.739
 2935W        W 3932   6.551   6.337   3.385
 2936W        W 3933   4.449   3.025   0.132
 2937W        W 3934   6.007   2.740   4.951
 2938W        W 3935   7.035   2.623   3.040
 2939W        W 3936   7.060   0.992   6.108
 2940W        W 3937   7.997   7.211   6.058
 2941W        W 3938   4.297   1.238   7.592
 2942W        W 3939   5.536   1.543   0.854
 2943W        W 3940   7.716   4.618   6.419
 2944W        W 3941   0.216   2.031   1.173
 2945W        W 3942   1.534   6.012   6.275
 2946W        W 3943   0.617   3.578   1.046
 2947W        W 3944   7.672   3.288   5.198
 2948W        W 3945   3.922   3.847   5.160
 2949W        W 3946   6.164   0.806   7.529
 2950W        W 3947   6.859   6.702   3.503
 2951W        W 3948   3.814   1.110   4.758
 2952W        W 3949   7.371   1.735   2.626
 2953W        W 3950   2.099   4.948   1.359
 2954W        W 3951   1.979   2.925   5.196
 2955W        W 3952   5.512   3.226   5.652
 2956W        W 3953   3.567   2.859   4.372
 2957W        W 3954   4.035   6.915   6.663
 2958W        W 3955   0.837   1.481   6.899
 2959W        W 3956   4.079   2.097   6.622
 2960W        W 3957   3.885   4.587   3.527
 2961W        W 3958   1.239   6.828   0.948
 2962W        W 3959   5.523   0.151   3.237
 2963W        W 3960   3.007   3.151   4.463
 2964W        W 3961   2.301   0.606   3.159
 2965W        W 3962   6.560   1.717   6.454
 2966W        W 3963   5.200   2.707   0.208
 2967W        W 3964   0.113   2.912   1.570
 2968W        W 3965   6.683   3.322   2.064
 2969W        W 3966   4.895   6.566   0.445
 2970W        W 3967   4.180   1.537   4.027
 2971W        W 3968   1.134   0.975   3.303
 2972W        W 3969   2.335   1.946   4.406
 2973W        W 3970   3.106   0.945   3.996
 2974W        W 3971   6.253   7.750   4.413
 2975W        W 3972   6.458   6.458   7.333
 2976W        W 3973   5.521   0.287   5.946
 2977W        W 3974   4.661   3.696   6.931
 2978W        W 3975   4.648   5.509   2.021
 2979W        W 3976   3.393   6.711   5.111
 2980W        W 3977   1.514   2.009   6.748
 2981W        W 3978   5.649   6.180   1.642
 2982W        W 3979   5.439   6.812   5.209
 2983W        W 3980   0.477   4.680   7.818
 2984W        W 3981   6.272   7.621   7.019
 2985W        W 3982   2.908   0.750   2.849
 2986W        W 3983   6.942   4.132   2.518
 2987W        W 3984   0.193   4.663   2.090
 2988W        W 3985   6.306   3.879   4.150
 2989W        W 3986   4.621   4.786   3.974
 2990W        W 3987   7.592   0.064   3.783
 2991W        W 3988   5.298   5.955   6.066
 2992W        W 3989   1.740   0.626   7.870
 2993W        W 3990   6.875   7.217   4.084
 2994W        W 3991   2.720   4.298   5.305
 2995W        W 3992   3.233   1.042   4.825
 2996W        W 3993   0.961   5.005   7.124
 2997W        W 3994   7.381   6.703   1.307
 2998W        W 3995   6.790   0.918   3.051
 2999W        W 3996   7.971   4.394   3.352
 3000W        W 3997   7.847   5.814   1.770
 3001W        W 3998   4.836   0.853   6.407
 3002W        W 3999   1.339   0.179   6.485
 3003W        W 4000   7.211   5.433   1.623
 3004W        W 4001   3.966   4.713   7.561
 3005W        W 4002   3.231   0.502   3.725
 3006W        W 4003   3.846   1.435   2.737
 3007W        W 4004   5.974   6.562   0.828
 3008W        W 4005   7.958   3.791   7.836
 3009W        W 4006   3.629   0.469   7.455
 3010W        W 4007   1.492   4.113   0.441
 3011W        W 4008   4.536   6.672   1.547
 3012W        W 4009   5.346   3.719   1.866
 3013W        W 4010   6.950   4.984   4.108
 3014W        W 4011   7.187   1.433   0.056
 3015W        W 4012   2.957   1.383   7.034
 3016W        W 4013   7.131   6.392   4.615
 3017W        W 4014   6.548   6.166   1.709
 3018W        W 4015   0.735   3.389   2.605
 3019W        W 4016   7.471   6.588   2.948
 3020W        W 4017   7.347   5.199   5.365
 3021W        W 4018   6.027   5.222   5.402
 3022W        W 4019   0.199   4.902   2.766
 3023W        W 4020   0.103   1.926   5.540
 3024W        W 4021   3.458   1.292   6.421
 3025W        W 4022   4.924   7.144   5.798
 3026W        W 4023   1.753   3.227   0.841
 3027W        W 4024   0.011   0.347   6.489
 3028W        W 4025   5.957   1.783   5.860
 3029W        W 4026   4.403   5.594   6.848
 3030W        W 4027   0.038   1.318   7.673
 3031W        W 4028   3.051   6.778   6.892
 3032W        W 4029   1.999   6.453   4.619
 3033W        W 4030   4.345   6.035   1.101
 3034W        W 4031   7.672   7.282   0.382
 3035W        W 4032   1.700   0.416   3.184
 3036W        W 4033   6.146   2.516   3.667
 3037W        W 4034   5.005   1.973   5.732
 3038W        W 4035   3.708   5.585   0.030
 3039W        W 4036   5.793   5.722   6.116
 3040W        W 4037   7.382   5.652   7.936
 3041W        W 4038   4.357   3.115   6.390
 3042W        W 4039   1.294   7.133   2.618
 3043W        W 4040   7.555   5.064   6.251
 3044W        W 4041   5.725   3.392   1.641
 3045W        W 4042   5.662   0.735   5.122
 3046W        W 4043   3.298   2.570   5.788
 3047W        W 4044   4.943   2.315   2.041
 3048W        W 4045   7.351   1.161   3.073
 3049W        W 4046   6.690   1.098   1.598
 3050W        W 4047   3.062   3.244   3.540
 3051W        W 4048   1.297   7.142   5.489
 3052W        W 4049   7.395   1.030   4.715
 3053W        W 4050   7.669   7.724   6.275
 3054W        W 4051   6.560   6.379   6.363
 3055W        W 4052   3.797   1.379   0.326
 3056W        W 4053   6.368   0.883   3.857
 3057W        W 4054   6.456   0.607   3.388
 3058W        W 4055   3.737   2.173   6.263
 3059W        W 4056   7.161   5.829   5.822
 3060W        W 4057   3.023   0.525   4.222
 3061W        W 4058   0.586   1.288   5.096
 3062W        W 4059   7.395   2.613   2.506
 3063W        W 4060   3.339   1.113   0.121
 3064W        W 4061   3.579   7.078   5.626
 3065W        W 4062   1.069   6.801   5.081
 3066W        W 4063   3.610   6.196   1.519
 3067W        W 4064   1.576   7.372   4.357
 3068W        W 4065   0.269   3.535   4.534
 3069W        W 4066   4.395   6.037   6.675
 3070W        W 4067   7.734   4.078   4.226
 3071W        W 4068   7.936   0.045   3.374
 3072W        W 4069   1.687   7.264   1.384
 3073W        W 4070   5.654   5.918   6.928
 3074W        W 4071   3.329   4.732   1.585
 3075W        W 4072   5.061   1.881   6.200
 3076W        W 4073   5.218   7.600   6.861
 3077W        W 4074   6.414   6.968   6.282
 3078W        W 4075   6.056   3.713   0.443
 3079W        W 4076   2.456   2.126   3.058
 3080W        W 4077   4.299   4.938   0.303
 3081W        W 4078   4.535   3.129   1.100
 3082W        W 4079   6.696   7.099   4.926
 3083W        W 4080   4.623   3.627   1.139
 3084W        W 4081   4.431   3.785   3.552
 3085W        W 4082   5.945   4.666   5.380
 3086W        W 4083   3.115   7.387   7.729
 3087W        W 4084   1.918   2.978   6.992
 3088W        W 4085   6.150   2.592   5.916
 3089W        W 4086   5.071   7.037   0.369
 3090W        W 4087   1.485   7.108   5.036
 3091W        W 4088   7.614   2.536   4.288
 3092W        W 4089   2.879   2.641   1.273
 3093W        W 4090   5.584   6.238   2.162
 3094W        W 4091   3.604   3.791   1.787
 3095W        W 4092   5.474   0.937   0.396
 3096W        W 4093   4.891   3.539   4.947
 3097W        W 4094   4.135   7.007   5.707
 3098W        W 4095   2.626   5.089   2.396
 3099W        W 4096   4.911   2.512   5.450
 3100W        W 4097   5.991   7.197   0.743
 3101W        W 4098   1.639   2.667   7.350
 3102W        W 4099   1.709   2.541   5.395
 3103W        W 4100   6.757   7.780   4.432
 3104W        W 4101   7.366   2.889   4.010
 3105W        W 4102   0.833   4.579   5.175
 3106W        W 4103   0.620   4.815   3.816
 3107W        W 4104   7.425   1.828   6.828
 3108W        W 4105   3.620   1.601   1.189
 3109W        W 4106   3.005   1.747   0.189
 3110W        W 4107   6.544   4.202   4.525
 3111W        W 4108   4.818   4.703   6.672
 3112W        W 4109   6.049   3.731   6.692
 3113W        W 4110   7.040   2.248   7.471
 3114W        W 4111   2.837   2.853   1.729
 3115W        W 4112   6.252   2.164   6.140
 3116W        W 4113   5.157   2.816   2.233
 3117W        W 4114   1.168   2.728   7.465
 3118W        W 4115   5.155   7.009   2.498
 3119W        W 4116   5.591   5.385   7.412
 3120W        W 4117   5.689   2.749   3.395
 3121W        W 4118   0.989   7.181   5.893
 3122W        W 4119   6.030   7.377   6.199
 3123W        W 4120   4.826   7.426   5.397
 3124W        W 4121   3.940   7.340   2.486
 3125W        W 4122   1.952   6.073   6.014
 3126W        W 4123   3.271   4.436   5.319
 3127W        W 4124   4.662   3.089   7.772
 3128W        W 4125   6.305   3.372   2.875
 3129W        W 4126   4.055   2.844   4.184
 3130W        W 4127   3.670   7.549   7.346
 3131W        W 4128   4.697   4.268   4.767
 3132W        W 4129   7.077   2.092   3.833
 3133W        W 4130   4.392   3.644   4.943
 3134W        W 4131   7.484   5.038   0.358
 3135W        W 4132   2.018   1.156   6.546
 3136W        W 4133   6.581   4.574   5.619
 3137W        W 4134   0.141   1.204   3.687
 3138W        W 4135   2.468   4.585   7.133
 3139W        W 4136   6.267   2.332   7.882
 3140W        W 4137   5.195   6.807   6.129
 3141W        W 4138   2.384   6.654   7.205
 3142W        W 4139   3.565   6.423   2.238
 3143W        W 4140   0.673   7.302   0.692
 3144W        W 4141   2.490   3.171   5.611
 3145W        W 4142   7.359   0.249   4.208
 3146W        W 4143   6.546   1.892   0.675
 3147W        W 4144   2.814   5.380   0.765
 3148W        W 4145   3.941   3.366   5.051
 3149W        W 4146   6.840   0.130   1.750
 3150W        W 4147   7.356   0.399   6.885
 3151W        W 4148   4.835   6.747   6.495
 3152W        W 4149   1.709   4.198   2.667
 3153W        W 4150   7.965   4.383   6.936
 3154W        W 4151   4.598   7.895   6.204
 3155W        W 4152   6.237   5.294   4.611
 3156W        W 4153   6.464   1.507   1.426
 3157W        W 4154   0.529   2.351   0.221
 3158W        W 4155   3.222   3.049   1.437
 3159W        W 4156   1.865   7.054   5.545
 3160W        W 4157   1.870   4.466   4.112
 3161W        W 4158   2.052   2.898   0.179
 3162W        W 4159   4.787   4.708   5.009
 3163W        W 4160   0.538   6.621   2.092
 3164W        W 4161   2.206   2.504   5.098
 3165W        W 4162   0.199   2.664   2.385
 3166W        W 4163   2.388   2.894   3.322
 3167W        W 4164   4.762   3.283   6.702
 3168W        W 4165   0.011   6.640   2.133
 3169W        W 4166   0.424   4.086   2.870
 3170W        W 4167   7.746   4.835   3.349
 3171W        W 4168   2.374   0.800   3.608
 3172W        W 4169   0.866   5.105   7.626
 3173W        W 4170   7.648   3.556   7.534
 3174W        W 4171   0.096   2.253   4.014
 3175W        W 4172   0.201   6.891   4.609
 3176W        W 4173   7.823   6.377   6.175
 3177W        W 4174   7.460   3.734   4.470
 3178W        W 4175   2.260   6.919   2.093
 3179W        W 4176   1.655   6.398   5.748
 3180W        W 4177   4.495   2.886   6.830
 3181W        W 4178   7.342   1.875   1.439
 3182W        W 4179   6.106   5.019   0.801
 3183W        W 4180   2.340   2.748   1.443
 3184W        W 4181   0.754   7.033   5.499
 3185W        W 4182   7.116   3.414   2.333
 3186W        W 4183   1.705   6.551   6.245
 3187W        W 4184   3.506   3.556   3.897
 3188W        W 4185   4.222   5.349   7.994
 3189W        W 4186   3.798   1.987   2.012
 3190W        W 4187   1.903   4.814   6.494
 3191W        W 4188   1.995   1.598   5.111
 3192W        W 4189   7.211   6.690   6.082
 3193W        W 4190   7.024   6.258   6.679
 3194W        W 4191   5.457   1.338   7.069
 3195W        W 4192   6.236   3.846   4.679
 3196W        W 4193   0.298   7.556   0.935
 3197W        W 4194   4.997   7.370   2.187
 3198W        W 4195   5.305   1.714   6.755
 3199W        W 4196   6.219   6.928   7.135
 3200W        W 4197   6.839   7.016   2.689
 3201W        W 4198   7.820   0.238   1.153
 3202W        W 4199   0.704   3.334   5.832
 3203W        W 4200   0.265   3.825   1.387
 3204W        W 4201   7.118   1.325   4.286
 3205W        W 4202   6.967   3.881   2.949
 3206W        W 4203   7.328   3.863   2.312
 3207W        W 4204   3.482   7.576   5.630
 3208W        W 4205   0.932   1.406   5.423
 3209W        W 4206   2.476   6.900   6.206
 3210W        W 4207   6.257   4.506   7.463
 3211W        W 4208   6.836   0.740   3.996
 3212W        W 4209   3.410   7.503   3.382
 3213W        W 4210   7.561   1.375   5.985
 3214W        W 4211   4.542   6.351   3.727
 3215W        W 4212   0.253   3.344   5.539
 3216W        W 4213   1.146   1.681   6.469
 3217W        W 4214   2.838   6.456   7.571
 3218W        W 4215   7.641   0.391   2.676
 3219W        W 4216   0.761   4.388   6.603
 3220W        W 4217   2.032   4.469   1.172
 3221W        W 4218   5.249   6.548   4.832
 3222W        W 4219   6.092   0.274   1.284
 3223W        W 4220   2.240   0.195   2.898
 3224W        W 4221   6.921   1.503   6.044
 3225W        W 4222   2.090   6.952   1.632
 3226W        W 4223   3.458   7.616   0.611
 3227W        W 4224   6.345   4.669   4.617
 3228W        W 4225   3.035   5.330   1.266
 3229W        W 4226   5.119   0.728   4.881
 3230W        W 4227   3.309   3.119   2.635
 3231W        W 4228   2.782   0.521   3.309
 3232W        W 4229   7.962   3.768   6.359
 3233W        W 4230   0.510   7.646   1.389
 3234W        W 4231   5.491   2.630   6.781
 3235W        W 4232   1.843   4.437   7.851
 3236W        W 4233   0.082   3.144   2.636
 3237W        W 4234   5.071   3.741   6.542
 3238W        W 4235   1.977   7.542   3.071
 3239W        W 4236   7.326   6.667   3.432
 3240W        W 4237   7.477   0.812   1.332
 3241W        W 4238   1.671   5.985   4.610
 3242W        W 4239   3.612   2.999   2.269
 3243W        W 4240   1.716   3.265   0.226
 3244W        W 4241   6.862   1.258   6.570
 3245W        W 4242   3.182   2.071   6.049
 3246W        W 4243   1.807   0.803   4.299
 3247W        W 4244   5.569   3.620   3.944
 3248W        W 4245   4.315   4.419   0.137
 3249W        W 4246   7.057   2.002   0.095
 3250W        W 4247   4.712   3.321   3.477
 3251W        W 4248   3.079   5.876   1.077
 3252W        W 4249   6.481   4.268   0.208
 3253W        W 4250   6.110   6.320   6.552
 3254W        W 4251   3.480   3.995   5.478
 3255W        W 4252   0.999   3.896   0.369
 3256W        W 4253   1.253   6.368   6.075
 3257W        W 4254   4.509   2.980   2.716
 3258W        W 4255   7.290   4.529   1.008
 3259W        W 4256   0.824   3.061   4.860
 3260W        W 4257   5.076   2.845   2.800
 3261W        W 4258   4.312   5.065   4.226
 3262W        W 4259   2.550   3.855   5.265
 3263W        W 4260   2.838   2.910   7.734
 3264W        W 4261   4.730   5.030   2.123
 3265W        W 4262   5.302   4.533   3.096
 3266W        W 4263   5.460   7.517   2.475
 3267W        W 4264   5.535   5.510   2.482
 3268W        W 4265   7.332   1.354   6.404
 3269W        W 4266   3.270   3.087   4.014
 3270W        W 4267   7.820   1.633   1.681
 3271W        W 4268   1.015   7.828   1.460
 3272W        W 4269   1.355   5.842   7.738
 3273W        W 4270   5.179   2.493   0.708
 3274W        W 4271   6.118   1.947   1.675
 3275W        W 4272   5.865   0.965   1.984
   8.00000   8.00000   8.00000
