Martini system from ../2_Creating_coordinates/TYR-HIS-TYR_aa.pdb
 4396
    1TYR     BB    1   3.377   5.670   2.568
    1TYR    SC1    2   3.581   5.882   2.671
    1TYR    SC2    3   3.426   6.007   2.806
    1TYR    SC3    4   3.597   6.040   2.976
    2HIS     BB    5   3.261   5.664   2.927
    2HIS    SC1    6   3.080   5.492   2.861
    2HIS    SC2    7   2.886   5.491   3.008
    2HIS    SC3    8   2.845   5.498   2.827
    3TYR     BB    9   3.053   5.829   3.109
    3TYR    SC1   10   3.234   5.993   3.267
    3TYR    SC2   11   3.099   6.128   3.414
    3TYR    SC3   12   3.258   6.096   3.595
    1TYR     BB   13   4.194   4.043   5.344
    1TYR    SC1   14   4.084   3.896   5.595
    1TYR    SC2   15   4.150   4.062   5.757
    1TYR    SC3   16   3.945   4.025   5.882
    2HIS     BB   17   4.038   4.348   5.501
    2HIS    SC1   18   4.126   4.490   5.305
    2HIS    SC2   19   4.158   4.726   5.359
    2HIS    SC3   20   4.302   4.646   5.274
    3TYR     BB   21   4.125   4.572   5.716
    3TYR    SC1   22   3.975   4.488   5.951
    3TYR    SC2   23   4.025   4.643   6.128
    3TYR    SC3   24   3.793   4.640   6.200
    1TYR     BB   25   1.092   7.776   4.547
    1TYR    SC1   26   0.834   7.768   4.374
    1TYR    SC2   27   0.924   7.634   4.195
    1TYR    SC3   28   0.713   7.516   4.173
    2HIS     BB   29   1.113   7.409   4.466
    2HIS    SC1   30   1.333   7.395   4.600
    2HIS    SC2   31   1.481   7.214   4.531
    2HIS    SC3   32   1.563   7.380   4.547
    3TYR     BB   33   1.235   7.228   4.229
    3TYR    SC1   34   0.993   7.151   4.085
    3TYR    SC2   35   1.060   7.013   3.899
    3TYR    SC3   36   0.869   6.867   3.936
    1TYR     BB   37   1.295   6.052   2.079
    1TYR    SC1   38   1.209   6.338   1.992
    1TYR    SC2   39   1.300   6.329   1.769
    1TYR    SC3   40   1.109   6.452   1.683
    2HIS     BB   41   1.171   5.951   1.737
    2HIS    SC1   42   1.242   5.709   1.787
    2HIS    SC2   43   1.290   5.576   1.588
    2HIS    SC3   44   1.420   5.567   1.720
    3TYR     BB   45   1.292   5.936   1.439
    3TYR    SC1   46   1.167   6.168   1.315
    3TYR    SC2   47   1.243   6.178   1.086
    3TYR    SC3   48   1.021   6.243   1.012
    1TYR     BB   49   7.164   5.065   7.403
    1TYR    SC1   50   7.231   5.149   7.695
    1TYR    SC2   51   7.155   4.947   7.801
    1TYR    SC3   52   7.339   4.957   7.959
    2HIS     BB   53   7.318   4.735   7.503
    2HIS    SC1   54   7.266   4.643   7.268
    2HIS    SC2   55   7.242   4.401   7.259
    2HIS    SC3   56   7.105   4.495   7.176
    3TYR     BB   57   7.218   4.463   7.643
    3TYR    SC1   58   7.330   4.492   7.911
    3TYR    SC2   59   7.268   4.296   8.037
    3TYR    SC3   60   7.488   4.289   8.140
    1TYR     BB   61   5.192   1.517   6.044
    1TYR    SC1   62   5.019   1.728   6.194
    1TYR    SC2   63   4.844   1.577   6.264
    1TYR    SC3   64   4.826   1.693   6.477
    2HIS     BB   65   5.122   1.302   6.346
    2HIS    SC1   66   5.256   1.111   6.237
    2HIS    SC2   67   5.193   0.888   6.313
    2HIS    SC3   68   5.204   0.907   6.129
    3TYR     BB   69   4.890   1.098   6.440
    3TYR    SC1   70   4.749   1.259   6.638
    3TYR    SC2   71   4.568   1.126   6.724
    3TYR    SC3   72   4.609   1.210   6.948
    1TYR     BB   73   3.119   5.113   5.507
    1TYR    SC1   74   3.307   5.328   5.631
    1TYR    SC2   75   3.159   5.397   5.807
    1TYR    SC3   76   3.347   5.422   5.959
    2HIS     BB   77   3.058   5.015   5.866
    2HIS    SC1   78   2.893   4.834   5.785
    2HIS    SC2   79   2.724   4.773   5.949
    2HIS    SC3   80   2.658   4.810   5.780
    3TYR     BB   81   2.859   5.104   6.103
    3TYR    SC1   82   3.039   5.259   6.273
    3TYR    SC2   83   2.910   5.339   6.460
    3TYR    SC3   84   3.097   5.295   6.610
    1TYR     BB   85   6.996   7.373   3.443
    1TYR    SC1   86   6.882   7.102   3.546
    1TYR    SC2   87   7.022   7.085   3.741
    1TYR    SC3   88   6.838   6.992   3.869
    2HIS     BB   89   6.974   7.477   3.805
    2HIS    SC1   90   7.073   7.706   3.741
    2HIS    SC2   91   7.189   7.818   3.924
    2HIS    SC3   92   7.285   7.812   3.765
    3TYR     BB   93   7.162   7.457   4.066
    3TYR    SC1   94   7.029   7.244   4.215
    3TYR    SC2   95   7.153   7.210   4.419
    3TYR    SC3   96   6.947   7.181   4.544
    1TYR     BB   97   2.028   5.363   7.560
    1TYR    SC1   98   1.873   5.393   7.829
    1TYR    SC2   99   1.704   5.544   7.747
    1TYR    SC3  100   1.536   5.434   7.883
    2HIS     BB  101   1.684   5.332   7.409
    2HIS    SC1  102   1.793   5.312   7.176
    2HIS    SC2  103   1.649   5.382   6.992
    2HIS    SC3  104   1.819   5.455   6.988
    3TYR     BB  105   1.458   5.533   7.297
    3TYR    SC1  106   1.263   5.524   7.513
    3TYR    SC2  107   1.081   5.670   7.452
    3TYR    SC3  108   0.920   5.511   7.541
    1TYR     BB  109   5.563   7.591   1.367
    1TYR    SC1  110   5.253   7.599   1.395
    1TYR    SC2  111   5.202   7.572   1.162
    1TYR    SC3  112   5.012   7.431   1.217
    2HIS     BB  113   5.496   7.302   1.134
    2HIS    SC1  114   5.749   7.283   1.091
    2HIS    SC2  115   5.807   7.181   0.877
    2HIS    SC3  116   5.896   7.340   0.914
    3TYR     BB  117   5.430   7.264   0.821
    3TYR    SC1  118   5.145   7.202   0.830
    3TYR    SC2  119   5.071   7.168   0.604
    3TYR    SC3  120   4.930   6.983   0.674
    1TYR     BB  121   3.827   6.795   6.645
    1TYR    SC1  122   3.799   6.525   6.797
    1TYR    SC2  123   3.921   6.590   6.994
    1TYR    SC3  124   3.766   6.466   7.135
    2HIS     BB  125   3.744   6.948   6.980
    2HIS    SC1  126   3.768   7.182   6.875
    2HIS    SC2  127   3.826   7.357   7.034
    2HIS    SC3  128   3.931   7.355   6.881
    3TYR     BB  129   3.905   7.038   7.244
    3TYR    SC1  130   3.837   6.824   7.428
    3TYR    SC2  131   3.948   6.869   7.637
    3TYR    SC3  132   3.752   6.797   7.761
    1TYR     BB  133   3.604   2.367   1.803
    1TYR    SC1  134   3.556   2.338   2.109
    1TYR    SC2  135   3.355   2.469   2.119
    1TYR    SC3  136   3.261   2.317   2.284
    2HIS     BB  137   3.234   2.301   1.777
    2HIS    SC1  138   3.250   2.327   1.521
    2HIS    SC2  139   3.042   2.395   1.415
    2HIS    SC3  140   3.191   2.495   1.364
    3TYR     BB  141   2.963   2.475   1.788
    3TYR    SC1  142   2.863   2.408   2.053
    3TYR    SC2  143   2.657   2.529   2.086
    3TYR    SC3  144   2.558   2.336   2.196
    1TYR     BB  145   5.384   2.974   6.599
    1TYR    SC1  146   5.572   2.925   6.355
    1TYR    SC2  147   5.644   3.153   6.328
    1TYR    SC3  148   5.869   3.078   6.273
    2HIS     BB  149   5.668   3.187   6.726
    2HIS    SC1  150   5.527   3.246   6.933
    2HIS    SC2  151   5.586   3.458   7.038
    2HIS    SC3  152   5.404   3.435   7.007
    3TYR     BB  153   5.765   3.492   6.693
    3TYR    SC1  154   5.992   3.461   6.513
    3TYR    SC2  155   6.083   3.680   6.472
    3TYR    SC3  156   6.309   3.591   6.483
    1TYR     BB  157   5.233   4.690   2.298
    1TYR    SC1  158   5.512   4.827   2.295
    1TYR    SC2  159   5.586   4.746   2.509
    1TYR    SC3  160   5.812   4.717   2.424
    2HIS     BB  161   5.423   4.391   2.427
    2HIS    SC1  162   5.200   4.262   2.444
    2HIS    SC2  163   5.202   4.082   2.608
    2HIS    SC3  164   5.056   4.195   2.620
    3TYR     BB  165   5.520   4.281   2.713
    3TYR    SC1  166   5.805   4.341   2.704
    3TYR    SC2  167   5.902   4.267   2.911
    3TYR    SC3  168   6.098   4.185   2.794
    1TYR     BB  169   1.087   0.628   6.910
    1TYR    SC1  170   1.243   0.892   6.857
    1TYR    SC2  171   1.379   0.809   6.677
    1TYR    SC3  172   1.360   1.022   6.561
    2HIS     BB  173   1.061   0.613   6.534
    2HIS    SC1  174   0.935   0.389   6.555
    2HIS    SC2  175   0.954   0.245   6.360
    2HIS    SC3  176   0.989   0.160   6.522
    3TYR     BB  177   1.241   0.500   6.291
    3TYR    SC1  178   1.350   0.747   6.181
    3TYR    SC2  179   1.490   0.688   5.995
    3TYR    SC3  180   1.408   0.878   5.869
    1TYR     BB  181   4.804   1.376   2.251
    1TYR    SC1  182   5.050   1.334   2.437
    1TYR    SC2  183   5.068   1.562   2.513
    1TYR    SC3  184   5.127   1.486   2.736
    2HIS     BB  185   4.670   1.581   2.538
    2HIS    SC1  186   4.460   1.633   2.398
    2HIS    SC2  187   4.348   1.840   2.460
    2HIS    SC3  188   4.379   1.821   2.278
    3TYR     BB  189   4.691   1.886   2.639
    3TYR    SC1  190   4.873   1.858   2.865
    3TYR    SC2  191   4.906   2.078   2.959
    3TYR    SC3  192   4.899   1.986   3.184
    1TYR     BB  193   0.425   4.470   2.862
    1TYR    SC1  194   0.660   4.607   2.711
    1TYR    SC2  195   0.839   4.502   2.834
    1TYR    SC3  196   0.971   4.484   2.631
    2HIS     BB  197   0.634   4.158   2.827
    2HIS    SC1  198   0.454   4.027   2.956
    2HIS    SC2  199   0.538   3.829   3.070
    2HIS    SC3  200   0.433   3.940   3.175
    3TYR     BB  201   0.872   4.015   2.991
    3TYR    SC1  202   1.102   4.077   2.824
    3TYR    SC2  203   1.296   3.979   2.928
    3TYR    SC3  204   1.382   3.912   2.711
    1TYR     BB  205   6.176   2.878   3.998
    1TYR    SC1  206   6.111   2.622   4.163
    1TYR    SC2  207   6.325   2.603   4.272
    1TYR    SC3  208   6.217   2.531   4.477
    2HIS     BB  209   6.331   3.000   4.320
    2HIS    SC1  210   6.399   3.218   4.200
    2HIS    SC2  211   6.592   3.329   4.299
    2HIS    SC3  212   6.602   3.307   4.115
    3TYR     BB  213   6.617   2.977   4.465
    3TYR    SC1  214   6.559   2.783   4.675
    3TYR    SC2  215   6.762   2.749   4.800
    3TYR    SC3  216   6.637   2.742   5.008
    1TYR     BB  217   5.851   8.074   2.902
    1TYR    SC1  218   6.049   7.959   2.692
    1TYR    SC2  219   6.060   7.736   2.781
    1TYR    SC3  220   6.067   7.643   2.557
    2HIS     BB  221   5.667   7.750   2.850
    2HIS    SC1  222   5.494   7.823   3.026
    2HIS    SC2  223   5.380   7.639   3.137
    2HIS    SC3  224   5.448   7.767   3.252
    3TYR     BB  225   5.678   7.451   2.971
    3TYR    SC1  226   5.807   7.306   2.753
    3TYR    SC2  227   5.827   7.076   2.821
    3TYR    SC3  228   5.769   7.002   2.598
    1TYR     BB  229   1.371  -0.110   0.223
    1TYR    SC1  230   1.107  -0.131   0.387
    1TYR    SC2  231   1.083   0.104   0.433
    1TYR    SC3  232   0.842   0.089   0.405
    2HIS     BB  233   1.201   0.185   0.059
    2HIS    SC1  234   1.413   0.223  -0.082
    2HIS    SC2  235   1.442   0.453  -0.158
    2HIS    SC3  236   1.593   0.378  -0.080
    3TYR     BB  237   1.171   0.500   0.118
    3TYR    SC1  238   0.896   0.514   0.214
    3TYR    SC2  239   0.849   0.744   0.266
    3TYR    SC3  240   0.625   0.722   0.173
    1TYR     BB  241   0.292   7.667   2.464
    1TYR    SC1  242   0.094   7.839   2.296
    1TYR    SC2  243   0.258   7.987   2.200
    1TYR    SC3  244   0.138   7.988   1.989
    2HIS     BB  245   0.503   7.675   2.152
    2HIS    SC1  246   0.683   7.537   2.275
    2HIS    SC2  247   0.908   7.567   2.187
    2HIS    SC3  248   0.895   7.583   2.371
    3TYR     BB  249   0.725   7.870   2.023
    3TYR    SC1  250   0.572   7.998   1.811
    3TYR    SC2  251   0.719   8.152   1.699
    3TYR    SC3  252   0.624   8.090   1.484
    1TYR     BB  253   0.581  -0.052   5.424
    1TYR    SC1  254   0.764   0.198   5.445
    1TYR    SC2  255   0.693   0.303   5.240
    1TYR    SC3  256   0.706   0.522   5.344
    2HIS     BB  257   0.317   0.197   5.322
    2HIS    SC1  258   0.150   0.003   5.294
    2HIS    SC2  259  -0.031   0.049   5.137
    2HIS    SC3  260   0.055  -0.113   5.109
    3TYR     BB  261   0.218   0.336   5.049
    3TYR    SC1  262   0.328   0.604   5.078
    3TYR    SC2  263   0.267   0.730   4.882
    3TYR    SC3  264   0.223   0.926   5.018
    1TYR     BB  265   3.220   4.875   3.893
    1TYR    SC1  266   3.289   4.585   3.982
    1TYR    SC2  267   3.155   4.585   4.182
    1TYR    SC3  268   3.093   4.353   4.143
    2HIS     BB  269   2.868   4.779   3.985
    2HIS    SC1  270   2.790   5.017   3.922
    2HIS    SC2  271   2.587   5.089   4.035
    2HIS    SC3  272   2.726   5.212   4.041
    3TYR     BB  273   2.686   4.780   4.251
    3TYR    SC1  274   2.682   4.496   4.318
    3TYR    SC2  275   2.550   4.471   4.518
    3TYR    SC3  276   2.450   4.268   4.430
    1TYR     BB  277   5.423   5.803   1.148
    1TYR    SC1  278   5.285   5.533   1.215
    1TYR    SC2  279   5.096   5.559   1.068
    1TYR    SC3  280   5.103   5.323   1.012
    2HIS     BB  281   5.340   5.714   0.791
    2HIS    SC1  282   5.444   5.936   0.714
    2HIS    SC2  283   5.356   6.020   0.503
    2HIS    SC3  284   5.360   6.145   0.639
    3TYR     BB  285   5.089   5.750   0.592
    3TYR    SC1  286   4.979   5.480   0.589
    3TYR    SC2  287   4.786   5.482   0.444
    3TYR    SC3  288   4.848   5.266   0.353
    1TYR     BB  289   1.272   2.851   2.039
    1TYR    SC1  290   1.302   3.044   2.281
    1TYR    SC2  291   1.337   3.245   2.154
    1TYR    SC3  292   1.206   3.373   2.313
    2HIS     BB  293   1.056   3.125   1.896
    2HIS    SC1  294   1.023   2.984   1.683
    2HIS    SC2  295   0.972   3.114   1.484
    2HIS    SC3  296   1.107   2.989   1.462
    3TYR     BB  297   1.101   3.394   1.723
    3TYR    SC1  298   1.066   3.599   1.927
    3TYR    SC2  299   1.096   3.813   1.820
    3TYR    SC3  300   0.913   3.907   1.950
    1TYR     BB  301   6.195   5.605   1.483
    1TYR    SC1  302   6.257   5.893   1.584
    1TYR    SC2  303   6.164   5.867   1.804
    1TYR    SC3  304   6.342   6.001   1.899
    2HIS     BB  305   6.321   5.500   1.823
    2HIS    SC1  306   6.271   5.255   1.762
    2HIS    SC2  307   6.230   5.111   1.954
    2HIS    SC3  308   6.103   5.097   1.819
    3TYR     BB  309   6.196   5.463   2.118
    3TYR    SC1  310   6.301   5.698   2.254
    3TYR    SC2  311   6.220   5.693   2.481
    3TYR    SC3  312   6.435   5.771   2.563
    1TYR     BB  313   0.220   6.126   7.072
    1TYR    SC1  314   0.249   6.328   7.307
    1TYR    SC2  315   0.489   6.315   7.326
    1TYR    SC3  316   0.501   6.553   7.372
    2HIS     BB  317   0.515   6.310   6.927
    2HIS    SC1  318   0.512   6.149   6.726
    2HIS    SC2  319   0.728   6.124   6.615
    2HIS    SC3  320   0.643   5.964   6.655
    3TYR     BB  321   0.836   6.292   6.949
    3TYR    SC1  322   0.894   6.522   7.119
    3TYR    SC2  323   1.133   6.530   7.151
    3TYR    SC3  324   1.131   6.772   7.131
    1TYR     BB  325   4.207   3.213   2.588
    1TYR    SC1  326   4.418   3.430   2.658
    1TYR    SC2  327   4.313   3.611   2.539
    1TYR    SC3  328   4.375   3.767   2.715
    2HIS     BB  329   3.957   3.483   2.668
    2HIS    SC1  330   3.767   3.320   2.608
    2HIS    SC2  331   3.561   3.429   2.536
    2HIS    SC3  332   3.619   3.292   2.425
    3TYR     BB  333   3.814   3.725   2.509
    3TYR    SC1  334   3.958   3.955   2.614
    3TYR    SC2  335   3.867   4.152   2.508
    3TYR    SC3  336   3.880   4.274   2.717
    1TYR     BB  337   2.857   1.573   4.491
    1TYR    SC1  338   2.687   1.399   4.686
    1TYR    SC2  339   2.810   1.452   4.886
    1TYR    SC3  340   2.604   1.456   5.015
    2HIS     BB  341   2.835   1.832   4.764
    2HIS    SC1  342   2.981   1.990   4.621
    2HIS    SC2  343   3.105   2.155   4.750
    2HIS    SC3  344   3.207   2.062   4.625
    3TYR     BB  345   3.000   1.906   5.031
    3TYR    SC1  346   2.820   1.807   5.238
    3TYR    SC2  347   2.923   1.851   5.451
    3TYR    SC3  348   2.708   1.913   5.546
    1TYR     BB  349   2.165   7.571   5.851
    1TYR    SC1  350   2.065   7.804   6.030
    1TYR    SC2  351   1.856   7.841   5.916
    1TYR    SC3  352   1.744   7.885   6.127
    2HIS     BB  353   1.811   7.445   5.882
    2HIS    SC1  354   1.871   7.247   5.729
    2HIS    SC2  355   1.682   7.152   5.609
    2HIS    SC3  356   1.830   7.188   5.503
    3TYR     BB  357   1.531   7.491   5.728
    3TYR    SC1  358   1.389   7.662   5.917
    3TYR    SC2  359   1.173   7.711   5.823
    3TYR    SC3  360   1.069   7.687   6.041
    1TYR     BB  361   5.697   2.273   7.168
    1TYR    SC1  362   5.902   2.488   7.075
    1TYR    SC2  363   6.025   2.347   6.924
    1TYR    SC3  364   6.050   2.531   6.767
    2HIS     BB  365   5.681   2.184   6.802
    2HIS    SC1  366   5.515   1.996   6.859
    2HIS    SC2  367   5.512   1.813   6.698
    2HIS    SC3  368   5.525   1.760   6.875
    3TYR     BB  369   5.844   1.994   6.600
    3TYR    SC1  370   6.000   2.189   6.451
    3TYR    SC2  371   6.133   2.068   6.290
    3TYR    SC3  372   6.092   2.239   6.123
    1TYR     BB  373  -0.189   1.491   5.235
    1TYR    SC1  374   0.068   1.316   5.236
    1TYR    SC2  375   0.204   1.462   5.102
    1TYR    SC3  376   0.399   1.412   5.237
    2HIS     BB  377   0.050   1.776   5.297
    2HIS    SC1  378  -0.149   1.939   5.293
    2HIS    SC2  379  -0.089   2.167   5.231
    2HIS    SC3  380  -0.235   2.098   5.139
    3TYR     BB  381   0.231   1.974   5.118
    3TYR    SC1  382   0.497   1.863   5.160
    3TYR    SC2  383   0.652   1.997   5.033
    3TYR    SC3  384   0.814   1.985   5.214
    1TYR     BB  385   7.537   2.850   3.661
    1TYR    SC1  386   7.452   2.867   3.960
    1TYR    SC2  387   7.253   2.734   3.941
    1TYR    SC3  388   7.296   2.633   4.158
    2HIS     BB  389   7.447   2.485   3.696
    2HIS    SC1  390   7.506   2.451   3.448
    2HIS    SC2  391   7.392   2.262   3.344
    2HIS    SC3  392   7.383   2.420   3.247
    3TYR     BB  393   7.182   2.305   3.669
    3TYR    SC1  394   7.120   2.252   3.949
    3TYR    SC2  395   6.921   2.117   3.955
    3TYR    SC3  396   7.013   1.984   4.136
    1TYR     BB  397   0.668   4.757   3.861
    1TYR    SC1  398   0.874   4.906   4.041
    1TYR    SC2  399   0.901   5.099   3.899
    1TYR    SC3  400   0.914   5.244   4.093
    2HIS     BB  401   0.508   5.097   3.827
    2HIS    SC1  402   0.331   4.994   3.670
    2HIS    SC2  403   0.231   5.153   3.515
    2HIS    SC3  404   0.291   4.996   3.436
    3TYR     BB  405   0.542   5.355   3.636
    3TYR    SC1  406   0.680   5.539   3.815
    3TYR    SC2  407   0.718   5.743   3.693
    3TYR    SC3  408   0.664   5.875   3.890
    1TYR     BB  409   0.038   6.650   3.854
    1TYR    SC1  410  -0.220   6.484   3.805
    1TYR    SC2  411  -0.143   6.370   3.608
    1TYR    SC3  412  -0.255   6.166   3.678
    2HIS     BB  413   0.216   6.326   3.778
    2HIS    SC1  414   0.442   6.447   3.808
    2HIS    SC2  415   0.626   6.344   3.687
    2HIS    SC3  416   0.611   6.528   3.663
    3TYR     BB  417   0.321   6.173   3.515
    3TYR    SC1  418   0.121   5.963   3.487
    3TYR    SC2  419   0.180   5.833   3.293
    3TYR    SC3  420   0.119   5.628   3.409
    1TYR     BB  421   1.910   6.459   6.879
    1TYR    SC1  422   1.765   6.680   7.043
    1TYR    SC2  423   1.704   6.541   7.230
    1TYR    SC3  424   1.748   6.724   7.384
    2HIS     BB  425   2.063   6.365   7.210
    2HIS    SC1  426   2.188   6.172   7.095
    2HIS    SC2  427   2.245   5.988   7.243
    2HIS    SC3  428   2.163   5.937   7.084
    3TYR     BB  429   1.984   6.178   7.461
    3TYR    SC1  430   1.904   6.377   7.658
    3TYR    SC2  431   1.839   6.259   7.858
    3TYR    SC3  432   1.947   6.427   7.996
    1TYR     BB  433   5.789   4.538   7.580
    1TYR    SC1  434   6.004   4.754   7.519
    1TYR    SC2  435   5.983   4.749   7.279
    1TYR    SC3  436   6.014   4.990   7.269
    2HIS     BB  437   5.586   4.722   7.320
    2HIS    SC1  438   5.397   4.549   7.351
    2HIS    SC2  439   5.252   4.525   7.156
    2HIS    SC3  440   5.314   4.365   7.227
    3TYR     BB  441   5.554   4.715   7.000
    3TYR    SC1  442   5.699   4.956   6.923
    3TYR    SC2  443   5.690   4.974   6.683
    3TYR    SC3  444   5.658   5.214   6.699
    1TYR     BB  445   7.576   2.599   0.060
    1TYR    SC1  446   7.701   2.316   0.090
    1TYR    SC2  447   7.851   2.370   0.270
    1TYR    SC3  448   7.810   2.153   0.373
    2HIS     BB  449   7.563   2.591   0.437
    2HIS    SC1  450   7.463   2.829   0.435
    2HIS    SC2  451   7.505   2.956   0.639
    2HIS    SC3  452   7.545   3.047   0.482
    3TYR     BB  453   7.761   2.665   0.680
    3TYR    SC1  454   7.843   2.400   0.769
    3TYR    SC2  455   7.994   2.429   0.954
    3TYR    SC3  456   7.894   2.241   1.071
    1TYR     BB  457   2.081   1.194   4.124
    1TYR    SC1  458   1.831   1.202   4.309
    1TYR    SC2  459   1.882   1.410   4.418
    1TYR    SC3  460   1.647   1.472   4.418
    2HIS     BB  461   2.004   1.559   4.067
    2HIS    SC1  462   2.212   1.575   3.915
    2HIS    SC2  463   2.306   1.799   3.900
    2HIS    SC3  464   2.430   1.666   3.936
    3TYR     BB  465   2.074   1.839   4.211
    3TYR    SC1  466   1.821   1.901   4.341
    3TYR    SC2  467   1.849   2.110   4.458
    3TYR    SC3  468   1.627   2.180   4.391
    1TYR     BB  469   7.172   5.552   2.149
    1TYR    SC1  470   7.021   5.322   2.004
    1TYR    SC2  471   6.955   5.448   1.810
    1TYR    SC3  472   6.993   5.256   1.668
    2HIS     BB  473   7.315   5.623   1.807
    2HIS    SC1  474   7.444   5.822   1.906
    2HIS    SC2  475   7.498   5.996   1.744
    2HIS    SC3  476   7.421   6.058   1.901
    3TYR     BB  477   7.229   5.794   1.548
    3TYR    SC1  478   7.142   5.583   1.367
    3TYR    SC2  479   7.072   5.687   1.162
    3TYR    SC3  480   7.175   5.510   1.032
    1TYR     BB  481   2.147   3.901   1.756
    1TYR    SC1  482   2.145   3.638   1.922
    1TYR    SC2  483   2.048   3.497   1.753
    1TYR    SC3  484   2.191   3.313   1.819
    2HIS     BB  485   2.274   3.679   1.478
    2HIS    SC1  486   2.277   3.883   1.321
    2HIS    SC2  487   2.256   3.828   1.085
    2HIS    SC3  488   2.142   3.962   1.143
    3TYR     BB  489   2.144   3.492   1.249
    3TYR    SC1  490   2.193   3.227   1.359
    3TYR    SC2  491   2.103   3.067   1.203
    3TYR    SC3  492   2.293   2.920   1.238
    1TYR     BB  493   0.124   1.335   1.633
    1TYR    SC1  494   0.421   1.309   1.722
    1TYR    SC2  495   0.520   1.392   1.518
    1TYR    SC3  496   0.692   1.508   1.645
    2HIS     BB  497   0.233   1.670   1.498
    2HIS    SC1  498  -0.006   1.709   1.410
    2HIS    SC2  499  -0.019   1.862   1.221
    2HIS    SC3  500  -0.111   1.703   1.198
    3TYR     BB  501   0.363   1.783   1.226
    3TYR    SC1  502   0.638   1.830   1.308
    3TYR    SC2  503   0.758   1.916   1.118
    3TYR    SC3  504   0.877   2.073   1.259
    1TYR     BB  505   6.223   7.954   7.598
    1TYR    SC1  506   6.093   8.227   7.524
    1TYR    SC2  507   6.090   8.195   7.286
    1TYR    SC3  508   5.874   8.305   7.271
    2HIS     BB  509   5.981   7.815   7.344
    2HIS    SC1  510   6.078   7.580   7.386
    2HIS    SC2  511   6.052   7.426   7.198
    2HIS    SC3  512   6.223   7.433   7.268
    3TYR     BB  513   5.975   7.768   7.026
    3TYR    SC1  514   5.799   7.983   6.939
    3TYR    SC2  515   5.779   7.969   6.700
    3TYR    SC3  516   5.542   8.021   6.713
    1TYR     BB  517   3.255   2.977   6.282
    1TYR    SC1  518   3.515   2.997   6.452
    1TYR    SC2  519   3.410   3.077   6.654
    1TYR    SC3  520   3.560   2.942   6.789
    2HIS     BB  521   3.108   2.823   6.593
    2HIS    SC1  522   2.881   2.803   6.471
    2HIS    SC2  523   2.688   2.800   6.620
    2HIS    SC3  524   2.674   2.919   6.478
    3TYR     BB  525   2.965   2.929   6.862
    3TYR    SC1  526   3.179   2.893   7.057
    3TYR    SC2  527   3.095   2.966   7.270
    3TYR    SC3  528   3.206   2.781   7.381
    1TYR     BB  529   2.228   1.212   6.052
    1TYR    SC1  530   2.404   0.985   5.933
    1TYR    SC2  531   2.300   0.978   5.716
    1TYR    SC3  532   2.515   0.939   5.610
    2HIS     BB  533   2.281   1.377   5.717
    2HIS    SC1  534   2.132   1.573   5.794
    2HIS    SC2  535   2.025   1.694   5.611
    2HIS    SC3  536   1.911   1.645   5.749
    3TYR     BB  537   2.141   1.370   5.427
    3TYR    SC1  538   2.331   1.211   5.275
    3TYR    SC2  539   2.247   1.191   5.050
    3TYR    SC3  540   2.470   1.218   4.960
    1TYR     BB  541   3.518   1.945   6.803
    1TYR    SC1  542   3.328   2.181   6.734
    1TYR    SC2  543   3.429   2.237   6.522
    1TYR    SC3  544   3.210   2.284   6.427
    2HIS     BB  545   3.468   1.847   6.443
    2HIS    SC1  546   3.628   1.648   6.478
    2HIS    SC2  547   3.738   1.572   6.274
    2HIS    SC3  548   3.852   1.599   6.418
    3TYR     BB  549   3.603   1.919   6.159
    3TYR    SC1  550   3.401   2.096   6.043
    3TYR    SC2  551   3.481   2.164   5.827
    3TYR    SC3  552   3.257   2.143   5.734
    1TYR     BB  553   7.725   7.190   5.796
    1TYR    SC1  554   7.502   7.023   5.934
    1TYR    SC2  555   7.616   6.992   6.144
    1TYR    SC3  556   7.406   7.017   6.264
    2HIS     BB  557   7.742   7.371   6.126
    2HIS    SC1  558   7.933   7.517   6.033
    2HIS    SC2  559   8.081   7.608   6.203
    2HIS    SC3  560   8.168   7.526   6.061
    3TYR     BB  561   7.894   7.333   6.407
    3TYR    SC1  562   7.678   7.235   6.576
    3TYR    SC2  563   7.770   7.198   6.796
    3TYR    SC3  564   7.568   7.288   6.898
    1TYR     BB  565   5.706   6.338   5.699
    1TYR    SC1  566   5.407   6.254   5.721
    1TYR    SC2  567   5.326   6.385   5.536
    1TYR    SC3  568   5.173   6.208   5.472
    2HIS     BB  569   5.654   6.286   5.329
    2HIS    SC1  570   5.897   6.359   5.288
    2HIS    SC2  571   5.938   6.450   5.066
    2HIS    SC3  572   6.004   6.554   5.205
    3TYR     BB  573   5.549   6.461   5.080
    3TYR    SC1  574   5.283   6.349   5.039
    3TYR    SC2  575   5.182   6.466   4.854
    3TYR    SC3  576   5.087   6.258   4.771
    1TYR     BB  577   0.506   4.710   6.339
    1TYR    SC1  578   0.553   5.018   6.333
    1TYR    SC2  579   0.671   5.033   6.543
    1TYR    SC3  580   0.819   5.202   6.451
    2HIS     BB  581   0.866   4.696   6.452
    2HIS    SC1  582   0.847   4.440   6.470
    2HIS    SC2  583   1.003   4.339   6.628
    2HIS    SC3  584   0.827   4.284   6.647
    3TYR     BB  585   1.025   4.714   6.732
    3TYR    SC1  586   1.137   4.983   6.717
    3TYR    SC2  587   1.262   5.021   6.919
    3TYR    SC3  588   1.436   5.135   6.794
    1TYR     BB  589   6.876   6.157   7.118
    1TYR    SC1  590   6.938   5.897   7.278
    1TYR    SC2  591   6.971   6.002   7.492
    1TYR    SC3  592   6.861   5.816   7.604
    2HIS     BB  593   6.662   6.243   7.416
    2HIS    SC1  594   6.603   6.468   7.304
    2HIS    SC2  595   6.540   6.644   7.460
    2HIS    SC3  596   6.667   6.694   7.334
    3TYR     BB  597   6.704   6.386   7.702
    3TYR    SC1  598   6.698   6.156   7.882
    3TYR    SC2  599   6.729   6.239   8.106
    3TYR    SC3  600   6.564   6.082   8.189
    1TYR     BB  601   6.325   8.091   0.479
    1TYR    SC1  602   6.198   7.953   0.727
    1TYR    SC2  603   6.196   7.729   0.637
    1TYR    SC3  604   6.253   7.638   0.855
    2HIS     BB  605   6.557   7.794   0.480
    2HIS    SC1  606   6.673   7.888   0.270
    2HIS    SC2  607   6.782   7.719   0.132
    2HIS    SC3  608   6.672   7.836   0.038
    3TYR     BB  609   6.557   7.495   0.359
    3TYR    SC1  610   6.503   7.337   0.597
    3TYR    SC2  611   6.498   7.105   0.531
    3TYR    SC3  612   6.616   7.042   0.734
    1TYR     BB  613   3.371   7.946   7.143
    1TYR    SC1  614   3.534   8.174   7.007
    1TYR    SC2  615   3.656   8.034   6.853
    1TYR    SC3  616   3.638   8.204   6.680
    2HIS     BB  617   3.323   7.822   6.790
    2HIS    SC1  618   3.189   7.622   6.883
    2HIS    SC2  619   3.191   7.426   6.738
    2HIS    SC3  620   3.232   7.391   6.916
    3TYR     BB  621   3.483   7.633   6.584
    3TYR    SC1  622   3.594   7.831   6.401
    3TYR    SC2  623   3.721   7.712   6.234
    3TYR    SC3  624   3.639   7.861   6.061
    1TYR     BB  625   5.485   3.698   8.401
    1TYR    SC1  626   5.733   3.580   8.254
    1TYR    SC2  627   5.615   3.497   8.062
    1TYR    SC3  628   5.800   3.561   7.917
    2HIS     BB  629   5.393   3.829   8.059
    2HIS    SC1  630   5.178   3.930   8.160
    2HIS    SC2  631   4.997   3.959   7.999
    2HIS    SC3  632   4.947   3.875   8.157
    3TYR     BB  633   5.234   3.720   7.801
    3TYR    SC1  634   5.453   3.663   7.619
    3TYR    SC2  635   5.358   3.578   7.414
    3TYR    SC3  636   5.518   3.705   7.283
    1TYR     BB  637   1.570   3.198   0.752
    1TYR    SC1  638   1.584   3.458   0.583
    1TYR    SC2  639   1.650   3.355   0.376
    1TYR    SC3  640   1.509   3.508   0.251
    2HIS     BB  641   1.395   3.056   0.450
    2HIS    SC1  642   1.379   2.829   0.571
    2HIS    SC2  643   1.363   2.637   0.421
    2HIS    SC3  644   1.490   2.620   0.555
    3TYR     BB  645   1.482   2.914   0.174
    3TYR    SC1  646   1.437   3.130  -0.017
    3TYR    SC2  647   1.496   3.047  -0.235
    3TYR    SC3  648   1.307   3.162  -0.334
    1TYR     BB  649   4.720   4.959   4.421
    1TYR    SC1  650   4.635   4.751   4.637
    1TYR    SC2  651   4.760   4.846   4.819
    1TYR    SC3  652   4.580   4.795   4.974
    2HIS     BB  653   4.656   5.211   4.694
    2HIS    SC1  654   4.729   5.398   4.533
    2HIS    SC2  655   4.814   5.598   4.644
    2HIS    SC3  656   4.922   5.534   4.507
    3TYR     BB  657   4.823   5.341   4.937
    3TYR    SC1  658   4.708   5.202   5.166
    3TYR    SC2  659   4.819   5.284   5.363
    3TYR    SC3  660   4.609   5.284   5.485
    1TYR     BB  661   6.189   3.822   1.521
    1TYR    SC1  662   6.116   4.123   1.550
    1TYR    SC2  663   6.060   4.117   1.784
    1TYR    SC3  664   6.161   4.335   1.817
    2HIS     BB  665   6.372   3.875   1.846
    2HIS    SC1  666   6.439   3.626   1.845
    2HIS    SC2  667   6.484   3.534   2.066
    2HIS    SC3  668   6.370   3.431   1.961
    3TYR     BB  669   6.300   3.864   2.160
    3TYR    SC1  670   6.291   4.148   2.226
    3TYR    SC2  671   6.238   4.166   2.460
    3TYR    SC3  672   6.395   4.349   2.485
    1TYR     BB  673   3.220   5.675   0.914
    1TYR    SC1  674   2.942   5.673   0.774
    1TYR    SC2  675   3.011   5.788   0.573
    1TYR    SC3  676   2.866   5.646   0.439
    2HIS     BB  677   3.350   5.577   0.574
    2HIS    SC1  678   3.590   5.579   0.669
    2HIS    SC2  679   3.763   5.619   0.503
    2HIS    SC3  680   3.777   5.724   0.655
    3TYR     BB  681   3.445   5.729   0.306
    3TYR    SC1  682   3.217   5.681   0.131
    3TYR    SC2  683   3.265   5.788  -0.080
    3TYR    SC3  684   3.168   5.600  -0.200
    1TYR     BB  685   6.362   2.968   7.578
    1TYR    SC1  686   6.353   3.109   7.301
    1TYR    SC2  687   6.399   3.331   7.380
    1TYR    SC3  688   6.536   3.376   7.185
    2HIS     BB  689   6.668   3.180   7.634
    2HIS    SC1  690   6.690   3.080   7.871
    2HIS    SC2  691   6.808   3.223   8.029
    2HIS    SC3  692   6.647   3.156   8.091
    3TYR     BB  693   6.732   3.477   7.742
    3TYR    SC1  694   6.794   3.616   7.494
    3TYR    SC2  695   6.846   3.844   7.550
    3TYR    SC3  696   7.026   3.847   7.386
    1TYR     BB  697   1.440   3.406   6.595
    1TYR    SC1  698   1.585   3.492   6.333
    1TYR    SC2  699   1.397   3.460   6.185
    1TYR    SC3  700   1.460   3.657   6.058
    2HIS     BB  701   1.157   3.617   6.463
    2HIS    SC1  702   1.017   3.553   6.670
    2HIS    SC2  703   0.777   3.565   6.635
    2HIS    SC3  704   0.836   3.407   6.713
    3TYR     BB  705   0.904   3.575   6.267
    3TYR    SC1  706   0.996   3.712   6.026
    3TYR    SC2  707   0.821   3.694   5.862
    3TYR    SC3  708   0.860   3.923   5.790
    1TYR     BB  709   7.410   3.499   5.354
    1TYR    SC1  710   7.169   3.569   5.170
    1TYR    SC2  711   7.298   3.648   4.982
    1TYR    SC3  712   7.141   3.547   4.827
    2HIS     BB  713   7.556   3.349   5.040
    2HIS    SC1  714   7.768   3.287   5.173
    2HIS    SC2  715   7.969   3.266   5.037
    2HIS    SC3  716   7.989   3.371   5.189
    3TYR     BB  717   7.732   3.452   4.790
    3TYR    SC1  718   7.530   3.462   4.580
    3TYR    SC2  719   7.639   3.539   4.379
    3TYR    SC3  720   7.511   3.381   4.246
    1TYR     BB  721   4.926   2.157   0.373
    1TYR    SC1  722   5.113   2.175   0.621
    1TYR    SC2  723   5.239   1.975   0.577
    1TYR    SC3  724   5.443   2.083   0.654
    2HIS     BB  725   5.243   2.070   0.188
    2HIS    SC1  726   5.105   2.044  -0.028
    2HIS    SC2  727   5.205   1.894  -0.192
    2HIS    SC3  728   5.026   1.861  -0.157
    3TYR     BB  729   5.412   1.803   0.125
    3TYR    SC1  730   5.636   1.833   0.308
    3TYR    SC2  731   5.779   1.642   0.280
    3TYR    SC3  732   5.977   1.782   0.299
    1TYR     BB  733   6.469   6.806   6.725
    1TYR    SC1  734   6.358   7.059   6.583
    1TYR    SC2  735   6.424   6.998   6.360
    1TYR    SC3  736   6.219   7.091   6.270
    2HIS     BB  737   6.314   6.621   6.435
    2HIS    SC1  738   6.403   6.400   6.533
    2HIS    SC2  739   6.437   6.224   6.368
    2HIS    SC3  740   6.581   6.251   6.482
    3TYR     BB  741   6.403   6.537   6.137
    3TYR    SC1  742   6.252   6.727   5.977
    3TYR    SC2  743   6.302   6.683   5.745
    3TYR    SC3  744   6.070   6.721   5.684
    1TYR     BB  745   0.403   3.926   1.604
    1TYR    SC1  746   0.253   4.199   1.597
    1TYR    SC2  747   0.302   4.252   1.367
    1TYR    SC3  748   0.080   4.347   1.339
    2HIS     BB  749   0.238   3.870   1.270
    2HIS    SC1  750   0.358   3.642   1.253
    2HIS    SC2  751   0.391   3.564   1.025
    2HIS    SC3  752   0.543   3.557   1.131
    3TYR     BB  753   0.302   3.938   0.961
    3TYR    SC1  754   0.117   4.157   0.912
    3TYR    SC2  755   0.147   4.227   0.683
    3TYR    SC3  756  -0.093   4.256   0.658
    1TYR     BB  757   7.034   1.719   7.456
    1TYR    SC1  758   7.287   1.642   7.621
    1TYR    SC2  759   7.445   1.769   7.492
    1TYR    SC3  760   7.566   1.829   7.694
    2HIS     BB  761   7.179   2.067   7.468
    2HIS    SC1  762   6.981   2.150   7.326
    2HIS    SC2  763   7.029   2.351   7.196
    2HIS    SC3  764   6.949   2.214   7.100
    3TYR     BB  765   7.389   2.240   7.295
    3TYR    SC1  766   7.623   2.236   7.469
    3TYR    SC2  767   7.797   2.361   7.359
    3TYR    SC3  768   7.863   2.461   7.571
    1TYR     BB  769   2.456   7.983   2.298
    1TYR    SC1  770   2.222   8.017   2.095
    1TYR    SC2  771   2.340   7.934   1.902
    1TYR    SC3  772   2.138   7.824   1.822
    2HIS     BB  773   2.503   7.649   2.129
    2HIS    SC1  774   2.704   7.603   2.283
    2HIS    SC2  775   2.867   7.448   2.191
    2HIS    SC3  776   2.940   7.604   2.259
    3TYR     BB  777   2.662   7.536   1.872
    3TYR    SC1  778   2.444   7.497   1.683
    3TYR    SC2  779   2.539   7.412   1.479
    3TYR    SC3  780   2.352   7.259   1.451
    1TYR     BB  781   6.968   8.035   6.515
    1TYR    SC1  782   7.090   7.788   6.369
    1TYR    SC2  783   6.882   7.697   6.288
    1TYR    SC3  784   6.988   7.632   6.080
    2HIS     BB  785   6.758   8.067   6.203
    2HIS    SC1  786   6.639   8.271   6.308
    2HIS    SC2  787   6.415   8.311   6.222
    2HIS    SC3  788   6.427   8.311   6.407
    3TYR     BB  789   6.479   7.948   6.094
    3TYR    SC1  790   6.573   7.752   5.900
    3TYR    SC2  791   6.379   7.647   5.803
    3TYR    SC3  792   6.483   7.650   5.584
    1TYR     BB  793   4.357   6.722   2.876
    1TYR    SC1  794   4.625   6.615   2.992
    1TYR    SC2  795   4.644   6.423   2.848
    1TYR    SC3  796   4.884   6.455   2.833
    2HIS     BB  797   4.515   6.647   2.543
    2HIS    SC1  798   4.299   6.726   2.426
    2HIS    SC2  799   4.263   6.629   2.206
    2HIS    SC3  800   4.116   6.620   2.319
    3TYR     BB  801   4.540   6.393   2.346
    3TYR    SC1  802   4.816   6.313   2.391
    3TYR    SC2  803   4.859   6.120   2.253
    3TYR    SC3  804   5.081   6.205   2.200
    1TYR     BB  805   0.149   2.363   2.132
    1TYR    SC1  806  -0.099   2.507   2.253
    1TYR    SC2  807  -0.089   2.403   2.470
    1TYR    SC3  808  -0.155   2.611   2.577
    2HIS     BB  809   0.309   2.439   2.465
    2HIS    SC1  810   0.522   2.318   2.386
    2HIS    SC2  811   0.659   2.228   2.567
    2HIS    SC3  812   0.624   2.108   2.430
    3TYR     BB  813   0.325   2.299   2.755
    3TYR    SC1  814   0.142   2.466   2.909
    3TYR    SC2  815   0.137   2.380   3.133
    3TYR    SC3  816   0.135   2.605   3.223
    1TYR     BB  817   6.660   1.200   2.187
    1TYR    SC1  818   6.878   1.372   2.048
    1TYR    SC2  819   7.020   1.399   2.240
    1TYR    SC3  820   7.218   1.380   2.100
    2HIS     BB  821   6.954   1.017   2.337
    2HIS    SC1  822   6.790   0.867   2.467
    2HIS    SC2  823   6.883   0.771   2.671
    2HIS    SC3  824   6.716   0.851   2.692
    3TYR     BB  825   7.144   1.050   2.595
    3TYR    SC1  826   7.388   1.153   2.474
    3TYR    SC2  827   7.548   1.187   2.650
    3TYR    SC3  828   7.727   1.103   2.508
    1TYR     BB  829   7.296   4.166   4.263
    1TYR    SC1  830   7.562   4.197   4.105
    1TYR    SC2  831   7.550   4.436   4.077
    1TYR    SC3  832   7.790   4.454   4.109
    2HIS     BB  833   7.416   4.469   4.452
    2HIS    SC1  834   7.199   4.464   4.591
    2HIS    SC2  835   7.135   4.681   4.682
    2HIS    SC3  836   6.998   4.591   4.595
    3TYR     BB  837   7.400   4.789   4.417
    3TYR    SC1  838   7.671   4.850   4.329
    3TYR    SC2  839   7.683   5.089   4.295
    3TYR    SC3  840   7.906   5.093   4.392
    1TYR     BB  841   7.949   3.605   7.555
    1TYR    SC1  842   8.246   3.666   7.487
    1TYR    SC2  843   8.234   3.609   7.253
    1TYR    SC3  844   8.383   3.793   7.197
    2HIS     BB  845   7.877   3.786   7.233
    2HIS    SC1  846   7.625   3.741   7.268
    2HIS    SC2  847   7.495   3.738   7.062
    2HIS    SC3  848   7.466   3.593   7.174
    3TYR     BB  849   7.858   3.711   6.920
    3TYR    SC1  850   8.107   3.822   6.819
    3TYR    SC2  851   8.116   3.777   6.583
    3TYR    SC3  852   8.210   3.998   6.542
    1TYR     BB  853   3.067   3.582   1.647
    1TYR    SC1  854   3.305   3.436   1.783
    1TYR    SC2  855   3.328   3.586   1.970
    1TYR    SC3  856   3.378   3.400   2.118
    2HIS     BB  857   2.930   3.605   1.997
    2HIS    SC1  858   2.726   3.734   1.906
    2HIS    SC2  859   2.618   3.879   2.069
    2HIS    SC3  860   2.654   3.960   1.906
    3TYR     BB  861   2.957   3.806   2.248
    3TYR    SC1  862   3.131   3.653   2.425
    3TYR    SC2  863   3.167   3.786   2.623
    3TYR    SC3  864   3.150   3.587   2.762
    1TYR     BB  865   1.497   1.045   1.838
    1TYR    SC1  866   1.664   1.109   1.583
    1TYR    SC2  867   1.855   0.975   1.639
    1TYR    SC3  868   1.881   0.908   1.407
    2HIS     BB  869   1.610   0.690   1.776
    2HIS    SC1  870   1.483   0.617   1.988
    2HIS    SC2  871   1.571   0.414   2.091
    2HIS    SC3  872   1.544   0.555   2.209
    3TYR     BB  873   1.865   0.508   1.853
    3TYR    SC1  874   2.007   0.500   1.599
    3TYR    SC2  875   2.206   0.367   1.631
    3TYR    SC3  876   2.176   0.264   1.413
    1TYR     BB  877   3.283   4.778   7.474
    1TYR    SC1  878   3.423   4.510   7.550
    1TYR    SC2  879   3.232   4.367   7.513
    1TYR    SC3  880   3.376   4.194   7.421
    2HIS     BB  881   3.142   4.578   7.186
    2HIS    SC1  882   3.013   4.788   7.109
    2HIS    SC2  883   2.813   4.739   6.979
    2HIS    SC3  884   2.787   4.860   7.118
    3TYR     BB  885   2.887   4.389   7.135
    3TYR    SC1  886   3.010   4.125   7.137
    3TYR    SC2  887   2.836   3.963   7.100
    3TYR    SC3  888   2.982   3.834   6.956
    1TYR     BB  889   3.735   0.058   3.583
    1TYR    SC1  890   3.532   0.128   3.359
    1TYR    SC2  891   3.603   0.355   3.325
    1TYR    SC3  892   3.569   0.334   3.086
    2HIS     BB  893   3.983   0.237   3.363
    2HIS    SC1  894   4.165   0.195   3.539
    2HIS    SC2  895   4.348   0.357   3.534
    2HIS    SC3  896   4.276   0.327   3.703
    3TYR     BB  897   4.081   0.541   3.319
    3TYR    SC1  898   3.949   0.608   3.067
    3TYR    SC2  899   4.008   0.835   3.013
    3TYR    SC3  900   4.030   0.775   2.778
    1TYR     BB  901   1.151   1.170   0.740
    1TYR    SC1  902   1.112   0.983   0.494
    1TYR    SC2  903   1.125   1.154   0.326
    1TYR    SC3  904   1.247   1.004   0.179
    2HIS     BB  905   1.422   1.326   0.530
    2HIS    SC1  906   1.466   1.495   0.719
    2HIS    SC2  907   1.564   1.705   0.644
    2HIS    SC3  908   1.418   1.725   0.757
    3TYR     BB  909   1.441   1.557   0.306
    3TYR    SC1  910   1.473   1.398   0.063
    3TYR    SC2  911   1.490   1.551  -0.122
    3TYR    SC3  912   1.662   1.414  -0.224
    1TYR     BB  913   3.346   8.099   0.023
    1TYR    SC1  914   3.119   7.889   0.051
    1TYR    SC2  915   3.249   7.720   0.163
    1TYR    SC3  916   3.060   7.662   0.303
    2HIS     BB  917   3.425   8.007   0.380
    2HIS    SC1  918   3.622   8.172   0.375
    2HIS    SC2  919   3.800   8.118   0.533
    2HIS    SC3  920   3.858   8.153   0.360
    3TYR     BB  921   3.601   7.783   0.531
    3TYR    SC1  922   3.394   7.602   0.626
    3TYR    SC2  923   3.503   7.423   0.745
    3TYR    SC3  924   3.329   7.424   0.914
    1TYR     BB  925   5.918   4.967   5.749
    1TYR    SC1  926   5.951   5.034   6.051
    1TYR    SC2  927   6.018   4.814   6.122
    1TYR    SC3  928   6.177   4.910   6.279
    2HIS     BB  929   6.243   4.781   5.793
    2HIS    SC1  930   6.231   4.709   5.546
    2HIS    SC2  931   6.352   4.503   5.497
    2HIS    SC3  932   6.178   4.509   5.430
    3TYR     BB  933   6.334   4.486   5.886
    3TYR    SC1  934   6.435   4.540   6.154
    3TYR    SC2  935   6.510   4.330   6.246
    3TYR    SC3  936   6.703   4.440   6.346
    1TYR     BB  937   6.680   0.167   2.020
    1TYR    SC1  938   6.369   0.159   2.038
    1TYR    SC2  939   6.328   0.358   1.909
    1TYR    SC3  940   6.134   0.254   1.806
    2HIS     BB  941   6.619   0.249   1.657
    2HIS    SC1  942   6.874   0.266   1.622
    2HIS    SC2  943   6.939   0.409   1.436
    2HIS    SC3  944   7.029   0.443   1.595
    3TYR     BB  945   6.566   0.514   1.482
    3TYR    SC1  946   6.280   0.491   1.429
    3TYR    SC2  947   6.216   0.682   1.297
    3TYR    SC3  948   6.070   0.543   1.162
    1TYR     BB  949   2.653   1.611   0.152
    1TYR    SC1  950   2.556   1.903   0.201
    1TYR    SC2  951   2.459   1.865   0.418
    1TYR    SC3  952   2.538   2.081   0.494
    2HIS     BB  953   2.769   1.630   0.510
    2HIS    SC1  954   2.851   1.386   0.493
    2HIS    SC2  955   2.860   1.269   0.706
    2HIS    SC3  956   2.775   1.176   0.570
    3TYR     BB  957   2.642   1.577   0.801
    3TYR    SC1  958   2.602   1.849   0.897
    3TYR    SC2  959   2.505   1.836   1.117
    3TYR    SC3  960   2.644   2.020   1.192
    1TYR     BB  961   3.483   1.473   2.277
    1TYR    SC1  962   3.529   1.721   2.460
    1TYR    SC2  963   3.389   1.649   2.642
    1TYR    SC3  964   3.546   1.740   2.803
    2HIS     BB  965   3.528   1.277   2.596
    2HIS    SC1  966   3.486   1.060   2.464
    2HIS    SC2  967   3.399   0.876   2.599
    2HIS    SC3  968   3.305   0.907   2.442
    3TYR     BB  969   3.340   1.178   2.839
    3TYR    SC1  970   3.419   1.362   3.050
    3TYR    SC2  971   3.290   1.308   3.246
    3TYR    SC3  972   3.483   1.344   3.388
    1TYR     BB  973   1.414   2.206   3.393
    1TYR    SC1  974   1.146   2.152   3.244
    1TYR    SC2  975   1.235   2.153   3.021
    1TYR    SC3  976   1.087   1.972   2.957
    2HIS     BB  977   1.554   1.951   3.153
    2HIS    SC1  978   1.787   1.986   3.258
    2HIS    SC2  979   1.972   1.933   3.109
    2HIS    SC3  980   1.987   2.097   3.194
    3TYR     BB  981   1.677   1.952   2.855
    3TYR    SC1  982   1.456   1.838   2.702
    3TYR    SC2  983   1.525   1.828   2.472
    3TYR    SC3  984   1.419   1.611   2.446
    1TYR     BB  985   2.322   7.294   0.439
    1TYR    SC1  986   2.603   7.169   0.399
    1TYR    SC2  987   2.730   7.368   0.443
    1TYR    SC3  988   2.899   7.238   0.560
    2HIS     BB  989   2.478   7.457   0.741
    2HIS    SC1  990   2.255   7.576   0.788
    2HIS    SC2  991   2.277   7.783   0.914
    2HIS    SC3  992   2.172   7.797   0.762
    3TYR     BB  993   2.646   7.725   0.803
    3TYR    SC1  994   2.915   7.617   0.836
    3TYR    SC2  995   3.062   7.802   0.883
    3TYR    SC3  996   3.182   7.668   1.047
    1TYR     BB  997   6.437   5.203   3.134
    1TYR    SC1  998   6.156   5.322   3.197
    1TYR    SC2  999   6.036   5.114   3.195
    1TYR    SC3 1000   5.897   5.188   3.381
    2HIS     BB 1001   6.340   4.940   3.387
    2HIS    SC1 1002   6.565   4.822   3.345
    2HIS    SC2 1003   6.563   4.584   3.394
    2HIS    SC3 1004   6.635   4.628   3.229
    3TYR     BB 1005   6.181   4.660   3.386
    3TYR    SC1 1006   5.928   4.738   3.507
    3TYR    SC2 1007   5.789   4.541   3.516
    3TYR    SC3 1008   5.708   4.605   3.736
    1TYR     BB 1009   1.622   4.105   4.079
    1TYR    SC1 1010   1.499   4.351   3.933
    1TYR    SC2 1011   1.530   4.509   4.112
    1TYR    SC3 1012   1.586   4.684   3.953
    2HIS     BB 1013   1.889   4.349   4.185
    2HIS    SC1 1014   2.003   4.160   4.318
    2HIS    SC2 1015   2.140   4.238   4.505
    2HIS    SC3 1016   2.022   4.101   4.547
    3TYR     BB 1017   1.933   4.559   4.426
    3TYR    SC1 1018   1.886   4.812   4.290
    3TYR    SC2 1019   1.913   4.988   4.452
    3TYR    SC3 1020   2.027   5.126   4.288
    1TYR     BB 1021   4.561   0.553   2.498
    1TYR    SC1 1022   4.415   0.804   2.386
    1TYR    SC2 1023   4.533   0.815   2.177
    1TYR    SC3 1024   4.329   0.882   2.062
    2HIS     BB 1025   4.511   0.416   2.150
    2HIS    SC1 1026   4.635   0.202   2.221
    2HIS    SC2 1027   4.741   0.082   2.037
    2HIS    SC3 1028   4.851   0.110   2.183
    3TYR     BB 1029   4.669   0.427   1.869
    3TYR    SC1 1030   4.504   0.615   1.719
    3TYR    SC2 1031   4.604   0.640   1.501
    3TYR    SC3 1032   4.384   0.642   1.398
    1TYR     BB 1033   2.418   3.749   5.317
    1TYR    SC1 1034   2.228   3.921   5.140
    1TYR    SC2 1035   2.370   3.930   4.946
    1TYR    SC3 1036   2.177   3.911   4.800
    2HIS     BB 1037   2.464   3.545   5.003
    2HIS    SC1 1038   2.629   3.394   5.130
    2HIS    SC2 1039   2.791   3.281   4.986
    2HIS    SC3 1040   2.865   3.366   5.134
    3TYR     BB 1041   2.654   3.554   4.743
    3TYR    SC1 1042   2.470   3.654   4.541
    3TYR    SC2 1043   2.592   3.670   4.334
    3TYR    SC3 1044   2.400   3.588   4.211
    1TYR     BB 1045   1.028   5.194   2.616
    1TYR    SC1 1046   0.750   5.277   2.729
    1TYR    SC2 1047   0.644   5.318   2.517
    1TYR    SC3 1048   0.436   5.224   2.599
    2HIS     BB 1049   0.825   4.995   2.368
    2HIS    SC1 1050   1.044   4.919   2.256
    2HIS    SC2 1051   1.020   4.858   2.021
    2HIS    SC3 1052   1.160   4.974   2.056
    3TYR     BB 1053   0.685   5.047   2.083
    3TYR    SC1 1054   0.404   5.063   2.160
    3TYR    SC2 1055   0.276   5.103   1.960
    3TYR    SC3 1056   0.103   4.950   2.036
    1TYR     BB 1057   3.146   3.549   8.007
    1TYR    SC1 1058   2.938   3.341   8.108
    1TYR    SC2 1059   2.741   3.463   8.043
    1TYR    SC3 1060   2.631   3.256   7.977
    2HIS     BB 1061   2.924   3.567   7.703
    2HIS    SC1 1062   3.080   3.746   7.603
    2HIS    SC2 1063   2.972   3.894   7.443
    2HIS    SC3 1064   3.071   3.981   7.574
    3TYR     BB 1065   2.661   3.731   7.613
    3TYR    SC1 1066   2.455   3.527   7.637
    3TYR    SC2 1067   2.245   3.627   7.575
    3TYR    SC3 1068   2.180   3.425   7.458
    1TYR     BB 1069   0.457   1.355   3.602
    1TYR    SC1 1070   0.692   1.542   3.685
    1TYR    SC2 1071   0.861   1.439   3.547
    1TYR    SC3 1072   0.958   1.656   3.498
    2HIS     BB 1073   0.592   1.403   3.253
    2HIS    SC1 1074   0.409   1.246   3.164
    2HIS    SC2 1075   0.466   1.134   2.955
    2HIS    SC3 1076   0.401   1.021   3.087
    3TYR     BB 1077   0.816   1.264   3.067
    3TYR    SC1 1078   1.030   1.462   3.077
    3TYR    SC2 1079   1.212   1.380   2.943
    3TYR    SC3 1080   1.253   1.602   2.856
    1TYR     BB 1081   3.109   2.789   4.170
    1TYR    SC1 1082   3.379   2.943   4.174
    1TYR    SC2 1083   3.492   2.807   4.011
    1TYR    SC3 1084   3.600   3.003   3.917
    2HIS     BB 1085   3.155   2.793   3.796
    2HIS    SC1 1086   2.935   2.660   3.771
    2HIS    SC2 1087   2.922   2.528   3.567
    2HIS    SC3 1088   2.879   2.435   3.722
    3TYR     BB 1089   3.303   2.611   3.576
    3TYR    SC1 1090   3.536   2.774   3.514
    3TYR    SC2 1091   3.665   2.656   3.348
    3TYR    SC3 1092   3.711   2.864   3.231
    1TYR     BB 1093   2.762   0.897   2.106
    1TYR    SC1 1094   2.507   0.759   1.991
    1TYR    SC2 1095   2.361   0.950   2.010
    1TYR    SC3 1096   2.254   0.892   1.799
    2HIS     BB 1097   2.660   1.185   1.885
    2HIS    SC1 1098   2.862   1.319   1.972
    2HIS    SC2 1099   2.834   1.560   1.960
    2HIS    SC3 1100   2.893   1.498   2.124
    3TYR     BB 1101   2.466   1.442   1.909
    3TYR    SC1 1102   2.239   1.357   1.747
    3TYR    SC2 1103   2.078   1.536   1.749
    3TYR    SC3 1104   2.030   1.500   1.514
    1TYR     BB 1105   1.952   2.141   6.638
    1TYR    SC1 1106   1.829   1.913   6.810
    1TYR    SC2 1107   1.875   2.011   7.025
    1TYR    SC3 1108   1.662   1.930   7.111
    2HIS     BB 1109   1.771   2.368   6.878
    2HIS    SC1 1110   1.867   2.572   6.752
    2HIS    SC2 1111   1.885   2.773   6.888
    2HIS    SC3 1112   2.039   2.730   6.794
    3TYR     BB 1113   1.831   2.503   7.164
    3TYR    SC1 1114   1.667   2.339   7.340
    3TYR    SC2 1115   1.697   2.422   7.565
    3TYR    SC3 1116   1.460   2.390   7.610
    1TYR     BB 1117   0.361   5.392   5.504
    1TYR    SC1 1118   0.157   5.396   5.740
    1TYR    SC2 1119   0.314   5.455   5.912
    1TYR    SC3 1120   0.149   5.598   6.019
    2HIS     BB 1121   0.489   5.711   5.660
    2HIS    SC1 1122   0.670   5.723   5.477
    2HIS    SC2 1123   0.870   5.847   5.542
    2HIS    SC3 1124   0.904   5.681   5.466
    3TYR     BB 1125   0.701   5.792   5.889
    3TYR    SC1 1126   0.523   5.866   6.107
    3TYR    SC2 1127   0.660   5.931   6.294
    3TYR    SC3 1128   0.508   6.113   6.347
    1TYR     BB 1129   0.408   1.107   7.848
    1TYR    SC1 1130   0.209   1.220   8.058
    1TYR    SC2 1131   0.323   1.429   8.096
    1TYR    SC3 1132   0.111   1.546   8.113
    2HIS     BB 1133   0.397   1.455   7.704
    2HIS    SC1 1134   0.567   1.383   7.524
    2HIS    SC2 1135   0.699   1.566   7.433
    2HIS    SC3 1136   0.798   1.418   7.486
    3TYR     BB 1137   0.550   1.734   7.752
    3TYR    SC1 1138   0.348   1.886   7.896
    3TYR    SC2 1139   0.442   2.103   7.945
    3TYR    SC3 1140   0.229   2.209   7.895
    1TYR     BB 1141   0.087   6.593   0.883
    1TYR    SC1 1142   0.376   6.616   0.770
    1TYR    SC2 1143   0.317   6.602   0.537
    1TYR    SC3 1144   0.486   6.766   0.480
    2HIS     BB 1145  -0.000   6.835   0.608
    2HIS    SC1 1146  -0.247   6.825   0.681
    2HIS    SC2 1147  -0.406   6.877   0.505
    2HIS    SC3 1148  -0.444   6.722   0.599
    3TYR     BB 1149  -0.082   6.817   0.296
    3TYR    SC1 1150   0.165   6.903   0.168
    3TYR    SC2 1151   0.128   6.897  -0.070
    3TYR    SC3 1152   0.253   7.104  -0.098
    1TYR     BB 1153   4.242   6.574   4.340
    1TYR    SC1 1154   4.065   6.447   4.562
    1TYR    SC2 1155   4.235   6.437   4.732
    1TYR    SC3 1156   4.073   6.494   4.903
    2HIS     BB 1157   4.363   6.798   4.619
    2HIS    SC1 1158   4.522   6.913   4.452
    2HIS    SC2 1159   4.718   7.015   4.555
    2HIS    SC3 1160   4.755   6.908   4.408
    3TYR     BB 1161   4.592   6.787   4.845
    3TYR    SC1 1162   4.434   6.732   5.083
    3TYR    SC2 1163   4.586   6.719   5.270
    3TYR    SC3 1164   4.428   6.837   5.411
    1TYR     BB 1165   1.450   6.511   5.745
    1TYR    SC1 1166   1.752   6.496   5.671
    1TYR    SC2 1167   1.730   6.337   5.492
    1TYR    SC3 1168   1.901   6.453   5.363
    2HIS     BB 1169   1.398   6.525   5.372
    2HIS    SC1 1170   1.144   6.531   5.411
    2HIS    SC2 1171   1.012   6.446   5.224
    2HIS    SC3 1172   0.965   6.376   5.390
    3TYR     BB 1173   1.366   6.313   5.131
    3TYR    SC1 1174   1.627   6.333   5.002
    3TYR    SC2 1175   1.628   6.180   4.816
    3TYR    SC3 1176   1.748   6.342   4.680
    1TYR     BB 1177   1.143   5.045   0.317
    1TYR    SC1 1178   1.065   4.841   0.538
    1TYR    SC2 1179   0.837   4.809   0.469
    1TYR    SC3 1180   0.850   4.573   0.523
    2HIS     BB 1181   0.958   4.810   0.088
    2HIS    SC1 1182   1.007   4.969  -0.109
    2HIS    SC2 1183   0.846   4.954  -0.292
    2HIS    SC3 1184   0.882   5.127  -0.234
    3TYR     BB 1185   0.653   4.768  -0.009
    3TYR    SC1 1186   0.578   4.531   0.144
    3TYR    SC2 1187   0.350   4.479   0.088
    3TYR    SC3 1188   0.401   4.241   0.086
    1TYR     BB 1189   4.894   1.280   1.308
    1TYR    SC1 1190   4.859   1.036   1.497
    1TYR    SC2 1191   4.697   1.137   1.644
    1TYR    SC3 1192   4.578   0.926   1.663
    2HIS     BB 1193   4.518   1.300   1.326
    2HIS    SC1 1194   4.525   1.509   1.174
    2HIS    SC2 1195   4.335   1.658   1.200
    2HIS    SC3 1196   4.500   1.742   1.206
    3TYR     BB 1197   4.299   1.437   1.519
    3TYR    SC1 1198   4.202   1.205   1.667
    3TYR    SC2 1199   4.034   1.283   1.821
    3TYR    SC3 1200   3.898   1.087   1.777
    4W        W 1201   0.349   1.633   2.100
    5W        W 1202   4.010   5.867   1.494
    6W        W 1203   5.106   7.621   1.686
    7W        W 1204   3.772   4.299   0.403
    8W        W 1205   5.683   0.072   4.002
    9W        W 1206   3.484   7.360   2.147
   10W        W 1207   2.537   3.319   3.106
   11W        W 1208   3.373   7.676   5.025
   12W        W 1209   3.635   6.731   2.684
   13W        W 1210   3.112   3.406   6.189
   14W        W 1211   3.682   2.669   5.460
   15W        W 1212   6.617   2.508   3.357
   16W        W 1213   0.928   6.753   6.162
   17W        W 1214   2.972   7.428   4.929
   18W        W 1215   7.158   3.321   3.628
   19W        W 1216   6.117   6.459   3.240
   20W        W 1217   7.256   3.126   1.905
   21W        W 1218   4.479   7.132   6.676
   22W        W 1219   3.548   2.037   0.913
   23W        W 1220   4.614   4.267   3.949
   24W        W 1221   4.204   3.886   1.026
   25W        W 1222   3.255   5.763   3.879
   26W        W 1223   2.552   6.182   3.404
   27W        W 1224   5.594   4.501   0.154
   28W        W 1225   3.957   5.410   1.281
   29W        W 1226   0.331   3.089   3.924
   30W        W 1227   1.975   6.238   5.081
   31W        W 1228   5.364   2.299   5.526
   32W        W 1229   2.937   0.037   5.008
   33W        W 1230   0.429   6.932   3.776
   34W        W 1231   2.769   0.900   5.002
   35W        W 1232   1.095   7.587   5.519
   36W        W 1233   7.929   1.101   3.258
   37W        W 1234   0.180   4.842   4.244
   38W        W 1235   6.949   4.572   2.275
   39W        W 1236   3.181   1.827   1.211
   40W        W 1237   4.354   0.291   4.467
   41W        W 1238   3.860   6.313   1.114
   42W        W 1239   3.430   4.024   2.538
   43W        W 1240   3.545   3.352   0.603
   44W        W 1241   2.630   7.135   2.585
   45W        W 1242   1.440   7.637   5.136
   46W        W 1243   5.533   0.490   3.665
   47W        W 1244   7.517   7.177   2.175
   48W        W 1245   2.251   0.633   4.073
   49W        W 1246   3.736   4.560   6.753
   50W        W 1247   4.599   2.116   6.133
   51W        W 1248   5.681   4.462   4.970
   52W        W 1249   5.676   1.433   2.966
   53W        W 1250   4.819   6.067   6.364
   54W        W 1251   0.606   2.177   6.213
   55W        W 1252   4.639   0.850   7.747
   56W        W 1253   1.180   3.272   4.125
   57W        W 1254   3.481   0.246   1.393
   58W        W 1255   6.733   1.195   3.868
   59W        W 1256   1.407   0.692   3.619
   60W        W 1257   1.602   2.575   3.865
   61W        W 1258   3.987   7.321   3.032
   62W        W 1259   1.242   7.332   1.453
   63W        W 1260   1.855   6.457   3.898
   64W        W 1261   4.050   5.464   2.603
   65W        W 1262   2.220   4.370   2.646
   66W        W 1263   6.449   1.641   4.888
   67W        W 1264   1.261   6.947   0.428
   68W        W 1265   6.442   3.540   3.828
   69W        W 1266   3.367   3.532   4.367
   70W        W 1267   3.230   4.191   0.394
   71W        W 1268   3.462   3.638   5.146
   72W        W 1269   6.619   6.519   2.671
   73W        W 1270   7.309   0.266   0.194
   74W        W 1271   3.211   0.699   7.320
   75W        W 1272   6.292   0.807   0.486
   76W        W 1273   2.098   2.272   1.668
   77W        W 1274   6.438   4.924   7.950
   78W        W 1275   5.937   5.515   6.608
   79W        W 1276   1.608   1.490   1.416
   80W        W 1277   0.024   0.654   7.928
   81W        W 1278   6.084   2.032   2.232
   82W        W 1279   5.349   6.095   3.993
   83W        W 1280   5.173   2.658   1.706
   84W        W 1281   1.268   4.458   2.892
   85W        W 1282   7.814   7.422   5.045
   86W        W 1283   0.819   0.266   0.956
   87W        W 1284   0.750   1.601   4.399
   88W        W 1285   1.797   0.656   7.022
   89W        W 1286   4.102   4.177   4.143
   90W        W 1287   2.391   5.181   5.671
   91W        W 1288   6.056   5.766   5.520
   92W        W 1289   5.269   3.839   4.784
   93W        W 1290   7.915   3.693   5.877
   94W        W 1291   2.142   3.523   0.605
   95W        W 1292   5.241   5.224   4.271
   96W        W 1293   2.032   0.198   0.976
   97W        W 1294   5.922   4.214   1.251
   98W        W 1295   0.546   4.305   3.982
   99W        W 1296   2.239   4.351   6.496
  100W        W 1297   6.496   5.044   1.240
  101W        W 1298   2.076   4.846   5.023
  102W        W 1299   0.275   5.572   1.494
  103W        W 1300   7.405   3.890   1.145
  104W        W 1301   3.515   4.667   4.942
  105W        W 1302   3.714   5.802   5.639
  106W        W 1303   6.165   6.953   1.111
  107W        W 1304   2.626   4.308   5.785
  108W        W 1305   7.728   0.116   7.149
  109W        W 1306   2.906   4.490   0.247
  110W        W 1307   3.678   0.463   4.635
  111W        W 1308   3.544   5.250   4.852
  112W        W 1309   7.724   7.128   1.245
  113W        W 1310   4.011   0.806   7.564
  114W        W 1311   0.266   3.307   6.067
  115W        W 1312   0.569   2.820   0.459
  116W        W 1313   5.281   7.196   5.432
  117W        W 1314   1.384   0.021   3.146
  118W        W 1315   0.853   7.400   1.141
  119W        W 1316   2.052   0.513   6.055
  120W        W 1317   3.922   2.298   4.099
  121W        W 1318   2.607   7.020   6.969
  122W        W 1319   3.742   4.648   2.876
  123W        W 1320   2.552   4.984   3.352
  124W        W 1321   2.997   4.317   1.667
  125W        W 1322   6.865   3.091   5.000
  126W        W 1323   3.990   4.941   5.149
  127W        W 1324   5.907   7.058   7.581
  128W        W 1325   3.354   0.720   1.981
  129W        W 1326   6.021   3.539   3.652
  130W        W 1327   4.883   2.466   7.680
  131W        W 1328   4.262   7.625   6.543
  132W        W 1329   4.190   2.869   5.895
  133W        W 1330   2.332   2.230   1.251
  134W        W 1331   4.572   5.569   2.581
  135W        W 1332   3.491   7.120   0.669
  136W        W 1333   3.830   6.778   4.809
  137W        W 1334   4.149   3.775   0.503
  138W        W 1335   4.457   1.760   0.882
  139W        W 1336   1.068   1.917   5.980
  140W        W 1337   3.216   4.376   2.811
  141W        W 1338   3.555   4.534   2.444
  142W        W 1339   4.290   5.252   2.235
  143W        W 1340   2.818   0.909   4.513
  144W        W 1341   4.900   2.969   1.462
  145W        W 1342   4.043   3.164   1.239
  146W        W 1343   2.314   6.966   3.819
  147W        W 1344   5.000   7.333   7.344
  148W        W 1345   6.190   6.168   2.866
  149W        W 1346   0.738   4.462   0.887
  150W        W 1347   0.049   0.664   0.817
  151W        W 1348   4.805   5.036   6.253
  152W        W 1349   3.710   7.655   3.799
  153W        W 1350   7.245   2.690   7.612
  154W        W 1351   4.274   3.116   2.080
  155W        W 1352   5.786   5.809   0.667
  156W        W 1353   0.612   1.030   7.085
  157W        W 1354   7.280   1.793   5.959
  158W        W 1355   2.590   4.619   1.098
  159W        W 1356   7.214   5.267   4.884
  160W        W 1357   0.325   6.638   1.251
  161W        W 1358   4.013   7.430   1.986
  162W        W 1359   6.418   3.571   0.115
  163W        W 1360   5.923   0.865   0.157
  164W        W 1361   2.861   6.097   1.457
  165W        W 1362   2.192   5.954   2.613
  166W        W 1363   7.281   6.851   6.945
  167W        W 1364   3.774   1.376   4.335
  168W        W 1365   3.628   3.244   0.059
  169W        W 1366   0.347   7.146   3.114
  170W        W 1367   3.678   3.672   0.904
  171W        W 1368   7.741   0.449   0.390
  172W        W 1369   2.608   7.013   1.645
  173W        W 1370   6.769   5.310   0.874
  174W        W 1371   6.324   2.586   2.869
  175W        W 1372   6.121   1.236   7.826
  176W        W 1373   7.235   4.956   6.943
  177W        W 1374   3.061   4.133   3.268
  178W        W 1375   7.603   5.308   4.528
  179W        W 1376   4.545   3.698   6.398
  180W        W 1377   3.100   4.999   4.788
  181W        W 1378   5.971   3.294   4.615
  182W        W 1379   1.229   1.111   5.164
  183W        W 1380   1.495   6.815   1.374
  184W        W 1381   3.677   4.566   4.058
  185W        W 1382   3.060   1.377   1.006
  186W        W 1383   1.439   3.755   2.342
  187W        W 1384   6.225   4.142   0.710
  188W        W 1385   7.406   4.118   1.879
  189W        W 1386   2.654   3.201   0.720
  190W        W 1387   1.345   2.618   2.437
  191W        W 1388   2.368   0.020   4.519
  192W        W 1389   2.731   6.631   0.322
  193W        W 1390   0.428   1.998   1.685
  194W        W 1391   5.736   6.311   2.823
  195W        W 1392   1.161   0.086   5.427
  196W        W 1393   5.285   7.593   5.142
  197W        W 1394   7.071   3.024   0.035
  198W        W 1395   5.973   2.274   4.878
  199W        W 1396   6.196   7.507   4.890
  200W        W 1397   3.485   4.051   4.160
  201W        W 1398   2.242   4.833   0.719
  202W        W 1399   5.497   6.915   4.538
  203W        W 1400   2.980   2.287   7.647
  204W        W 1401   0.298   4.821   0.245
  205W        W 1402   1.186   3.504   2.720
  206W        W 1403   7.495   0.885   7.167
  207W        W 1404   3.843   3.473   5.560
  208W        W 1405   2.179   5.064   7.217
  209W        W 1406   4.348   6.632   6.331
  210W        W 1407   0.068   0.328   2.342
  211W        W 1408   5.498   6.883   4.043
  212W        W 1409   6.524   1.236   6.236
  213W        W 1410   5.849   0.071   4.560
  214W        W 1411   7.408   6.166   4.959
  215W        W 1412   0.698   6.968   1.731
  216W        W 1413   0.445   4.265   0.421
  217W        W 1414   2.499   6.618   5.107
  218W        W 1415   2.303   2.590   3.904
  219W        W 1416   0.907   7.773   0.823
  220W        W 1417   0.171   7.871   4.160
  221W        W 1418   3.565   0.598   0.972
  222W        W 1419   7.556   5.320   3.163
  223W        W 1420   1.325   5.009   3.067
  224W        W 1421   3.618   0.917   3.868
  225W        W 1422   1.347   4.575   1.821
  226W        W 1423   0.626   1.066   4.390
  227W        W 1424   6.058   3.145   0.224
  228W        W 1425   2.843   6.163   4.726
  229W        W 1426   1.682   5.368   1.491
  230W        W 1427   3.664   4.151   3.681
  231W        W 1428   2.867   2.023   2.130
  232W        W 1429   3.002   6.463   5.114
  233W        W 1430   7.841   5.773   4.474
  234W        W 1431   6.988   1.672   0.535
  235W        W 1432   7.317   7.251   0.731
  236W        W 1433   2.995   1.542   6.545
  237W        W 1434   7.851   2.088   6.810
  238W        W 1435   1.278   4.324   5.223
  239W        W 1436   1.768   4.770   0.877
  240W        W 1437   0.995   2.283   0.036
  241W        W 1438   2.434   5.388   4.233
  242W        W 1439   2.627   0.058   3.162
  243W        W 1440   6.572   3.457   4.822
  244W        W 1441   5.078   0.628   5.918
  245W        W 1442   2.301   7.087   5.753
  246W        W 1443   1.257   2.988   3.634
  247W        W 1444   1.958   2.741   4.232
  248W        W 1445   1.209   3.848   3.757
  249W        W 1446   6.131   1.084   5.860
  250W        W 1447   6.559   4.297   3.034
  251W        W 1448   1.930   4.403   3.622
  252W        W 1449   7.497   7.503   2.703
  253W        W 1450   3.685   4.593   1.142
  254W        W 1451   4.763   6.233   1.425
  255W        W 1452   1.429   1.504   5.383
  256W        W 1453   3.548   0.353   4.147
  257W        W 1454   2.900   7.568   1.425
  258W        W 1455   1.814   4.223   0.816
  259W        W 1456   2.301   1.283   3.573
  260W        W 1457   5.922   4.946   4.852
  261W        W 1458   5.649   3.354   2.642
  262W        W 1459   5.659   4.976   2.782
  263W        W 1460   7.641   5.803   3.075
  264W        W 1461   5.314   0.911   3.796
  265W        W 1462   0.395   0.226   3.592
  266W        W 1463   0.846   4.409   1.617
  267W        W 1464   7.103   5.197   3.607
  268W        W 1465   4.036   5.543   3.924
  269W        W 1466   0.108   5.363   5.096
  270W        W 1467   7.672   6.207   4.515
  271W        W 1468   4.218   6.098   3.471
  272W        W 1469   1.375   3.430   1.164
  273W        W 1470   1.671   4.157   5.560
  274W        W 1471   7.044   7.394   2.370
  275W        W 1472   1.383   5.875   3.643
  276W        W 1473   6.533   5.993   5.084
  277W        W 1474   4.435   3.823   1.570
  278W        W 1475   5.675   6.250   7.689
  279W        W 1476   2.804   4.582   3.176
  280W        W 1477   4.244   0.539   5.236
  281W        W 1478   3.775   3.827   1.334
  282W        W 1479   1.353   5.632   0.531
  283W        W 1480   0.524   2.258   3.431
  284W        W 1481   2.563   2.588   2.961
  285W        W 1482   0.087   7.329   0.257
  286W        W 1483   1.748   1.354   0.943
  287W        W 1484   1.742   1.862   7.722
  288W        W 1485   6.784   5.617   3.362
  289W        W 1486   0.792   5.281   1.646
  290W        W 1487   0.422   5.714   0.978
  291W        W 1488   2.350   4.732   5.471
  292W        W 1489   7.841   4.210   2.193
  293W        W 1490   4.992   0.675   6.877
  294W        W 1491   2.805   1.992   3.466
  295W        W 1492   0.535   4.424   3.478
  296W        W 1493   4.588   6.991   0.788
  297W        W 1494   4.848   2.907   0.667
  298W        W 1495   6.939   4.095   0.989
  299W        W 1496   2.481   2.362   6.005
  300W        W 1497   6.224   0.691   6.822
  301W        W 1498   1.758   0.699   6.406
  302W        W 1499   0.524   7.235   5.057
  303W        W 1500   6.416   6.936   7.574
  304W        W 1501   7.141   6.937   4.678
  305W        W 1502   4.635   4.146   6.694
  306W        W 1503   2.712   4.367   2.746
  307W        W 1504   5.425   3.722   2.390
  308W        W 1505   5.016   5.636   1.548
  309W        W 1506   7.176   0.692   0.412
  310W        W 1507   1.617   1.242   2.597
  311W        W 1508   2.148   5.449   2.572
  312W        W 1509   3.105   0.486   4.764
  313W        W 1510   7.241   7.263   5.065
  314W        W 1511   2.191   7.073   3.340
  315W        W 1512   0.805   4.184   0.003
  316W        W 1513   5.704   5.121   3.873
  317W        W 1514   0.520   2.210   6.938
  318W        W 1515   2.932   0.801   0.370
  319W        W 1516   7.000   5.390   5.643
  320W        W 1517   2.837   5.883   7.389
  321W        W 1518   7.173   3.649   0.718
  322W        W 1519   6.705   3.832   0.546
  323W        W 1520   6.985   6.398   1.029
  324W        W 1521   6.530   3.909   6.745
  325W        W 1522   2.133   6.592   5.974
  326W        W 1523   0.997   2.101   5.539
  327W        W 1524   1.283   4.261   2.374
  328W        W 1525   2.328   1.500   4.662
  329W        W 1526   6.342   1.268   6.690
  330W        W 1527   1.301   6.551   2.309
  331W        W 1528   0.777   1.492   0.827
  332W        W 1529   2.547   1.040   6.531
  333W        W 1530   7.406   4.704   5.392
  334W        W 1531   6.076   0.833   5.340
  335W        W 1532   2.768   3.633   7.114
  336W        W 1533   7.273   3.416   1.170
  337W        W 1534   6.681   7.391   7.347
  338W        W 1535   5.999   6.606   7.491
  339W        W 1536   2.497   5.124   1.054
  340W        W 1537   5.570   2.933   1.837
  341W        W 1538   5.911   3.237   3.193
  342W        W 1539   4.981   5.828   7.675
  343W        W 1540   4.575   2.868   4.304
  344W        W 1541   0.994   4.818   1.317
  345W        W 1542   4.481   7.411   7.134
  346W        W 1543   2.646   5.930   6.748
  347W        W 1544   5.963   5.419   1.042
  348W        W 1545   5.321   1.660   3.240
  349W        W 1546   4.818   5.202   6.966
  350W        W 1547   4.323   2.836   0.552
  351W        W 1548   0.306   1.856   4.245
  352W        W 1549   7.326   2.967   4.964
  353W        W 1550   4.214   5.143   5.601
  354W        W 1551   5.152   1.309   0.457
  355W        W 1552   4.337   3.721   2.079
  356W        W 1553   2.805   0.133   5.663
  357W        W 1554   6.462   2.244   2.499
  358W        W 1555   2.413   5.702   5.113
  359W        W 1556   2.356   4.649   0.183
  360W        W 1557   2.193   3.020   0.659
  361W        W 1558   3.073   3.541   4.860
  362W        W 1559   7.972   4.131   5.298
  363W        W 1560   6.039   6.093   7.368
  364W        W 1561   5.332   1.206   5.178
  365W        W 1562   5.119   3.721   2.772
  366W        W 1563   4.362   4.703   3.421
  367W        W 1564   4.862   0.087   1.302
  368W        W 1565   6.397   4.930   5.059
  369W        W 1566   4.367   0.630   6.638
  370W        W 1567   0.573   6.303   0.535
  371W        W 1568   1.921   5.198   1.019
  372W        W 1569   2.253   4.285   2.069
  373W        W 1570   0.523   0.084   2.524
  374W        W 1571   7.573   0.969   0.532
  375W        W 1572   5.668   7.368   6.679
  376W        W 1573   0.892   2.859   2.310
  377W        W 1574   7.206   6.744   0.661
  378W        W 1575   3.928   5.259   4.369
  379W        W 1576   6.934   1.523   1.598
  380W        W 1577   0.241   3.307   1.316
  381W        W 1578   0.183   1.030   1.247
  382W        W 1579   5.192   6.883   7.365
  383W        W 1580   1.362   4.615   3.381
  384W        W 1581   5.576   7.464   1.775
  385W        W 1582   1.752   2.802   3.190
  386W        W 1583   0.707   7.542   3.167
  387W        W 1584   6.379   5.864   6.323
  388W        W 1585   1.168   3.771   4.365
  389W        W 1586   2.601   7.345   6.069
  390W        W 1587   0.563   6.180   0.034
  391W        W 1588   0.615   1.893   5.790
  392W        W 1589   3.021   6.917   3.273
  393W        W 1590   2.204   3.416   0.101
  394W        W 1591   3.953   1.633   4.995
  395W        W 1592   6.228   2.115   7.354
  396W        W 1593   0.166   5.804   4.064
  397W        W 1594   2.339   0.609   0.742
  398W        W 1595   3.541   1.808   0.365
  399W        W 1596   6.492   5.083   5.554
  400W        W 1597   0.928   1.731   3.962
  401W        W 1598   7.648   1.659   2.228
  402W        W 1599   2.513   1.885   7.289
  403W        W 1600   2.496   1.095   3.080
  404W        W 1601   0.595   3.849   4.288
  405W        W 1602   6.042   1.134   3.217
  406W        W 1603   3.435   2.324   4.412
  407W        W 1604   4.477   3.244   7.145
  408W        W 1605   5.180   3.234   1.965
  409W        W 1606   0.566   6.664   5.754
  410W        W 1607   3.374   6.613   3.132
  411W        W 1608   7.344   7.811   6.781
  412W        W 1609   7.213   1.344   6.940
  413W        W 1610   6.718   4.841   6.852
  414W        W 1611   4.272   7.015   3.315
  415W        W 1612   1.687   4.864   5.992
  416W        W 1613   5.991   0.370   6.393
  417W        W 1614   5.310   2.779   5.362
  418W        W 1615   6.254   6.507   4.976
  419W        W 1616   0.761   1.889   0.418
  420W        W 1617   2.568   3.468   6.353
  421W        W 1618   7.669   4.637   0.673
  422W        W 1619   6.150   4.390   4.087
  423W        W 1620   4.959   3.917   5.607
  424W        W 1621   6.680   1.515   3.000
  425W        W 1622   0.909   0.784   7.552
  426W        W 1623   1.139   0.905   1.385
  427W        W 1624   5.608   4.952   0.798
  428W        W 1625   3.147   0.050   4.128
  429W        W 1626   1.467   5.549   4.738
  430W        W 1627   2.707   0.257   1.550
  431W        W 1628   1.401   0.343   7.024
  432W        W 1629   1.652   5.783   5.755
  433W        W 1630   6.014   3.418   5.597
  434W        W 1631   5.090   3.496   3.901
  435W        W 1632   2.204   1.607   1.031
  436W        W 1633   0.423   3.184   2.254
  437W        W 1634   5.206   1.158   3.101
  438W        W 1635   7.671   3.454   3.286
  439W        W 1636   5.842   1.869   0.596
  440W        W 1637   6.914   3.731   3.693
  441W        W 1638   6.665   6.398   5.403
  442W        W 1639   7.928   0.867   6.951
  443W        W 1640   4.297   1.466   3.131
  444W        W 1641   6.904   5.757   2.450
  445W        W 1642   3.069   3.815   3.953
  446W        W 1643   1.409   7.471   2.213
  447W        W 1644   1.523   3.008   5.442
  448W        W 1645   4.673   2.041   7.892
  449W        W 1646   2.859   1.881   4.174
  450W        W 1647   6.652   7.714   3.202
  451W        W 1648   2.427   3.180   2.033
  452W        W 1649   7.092   2.642   5.770
  453W        W 1650   2.646   2.891   3.764
  454W        W 1651   6.769   2.803   5.426
  455W        W 1652   1.273   1.200   2.197
  456W        W 1653   7.431   1.580   4.839
  457W        W 1654   0.548   4.539   4.546
  458W        W 1655   0.391   3.199   3.101
  459W        W 1656   4.249   7.158   6.207
  460W        W 1657   3.950   2.589   7.550
  461W        W 1658   7.042   2.932   0.499
  462W        W 1659   1.247   5.733   2.433
  463W        W 1660   4.685   3.375   1.712
  464W        W 1661   2.995   7.596   5.450
  465W        W 1662   4.314   4.547   4.889
  466W        W 1663   6.508   7.541   1.735
  467W        W 1664   4.688   3.956   2.447
  468W        W 1665   5.246   2.577   1.201
  469W        W 1666   2.135   5.526   1.287
  470W        W 1667   0.639   4.149   1.266
  471W        W 1668   7.077   6.869   0.119
  472W        W 1669   6.566   3.867   3.310
  473W        W 1670   2.219   2.691   5.617
  474W        W 1671   2.555   5.326   7.457
  475W        W 1672   2.006   2.279   5.823
  476W        W 1673   5.703   3.147   5.174
  477W        W 1674   5.744   1.778   2.600
  478W        W 1675   6.534   2.133   3.736
  479W        W 1676   2.697   7.460   4.056
  480W        W 1677   4.633   0.642   4.197
  481W        W 1678   3.496   3.235   4.749
  482W        W 1679   5.067   6.904   3.109
  483W        W 1680   0.177   6.841   5.469
  484W        W 1681   0.100   5.858   0.041
  485W        W 1682   7.425   1.891   3.543
  486W        W 1683   4.943   3.212   7.333
  487W        W 1684   2.905   0.493   5.326
  488W        W 1685   1.813   1.775   4.665
  489W        W 1686   1.215   4.687   0.844
  490W        W 1687   7.582   0.005   3.042
  491W        W 1688   7.277   4.794   2.733
  492W        W 1689   5.349   4.628   4.057
  493W        W 1690   4.353   3.959   0.011
  494W        W 1691   4.966   2.867   6.984
  495W        W 1692   1.262   3.033   5.054
  496W        W 1693   6.613   7.421   6.380
  497W        W 1694   4.620   3.907   0.719
  498W        W 1695   4.987   7.461   7.894
  499W        W 1696   7.222   7.579   7.508
  500W        W 1697   7.772   0.232   5.642
  501W        W 1698   5.982   5.966   5.055
  502W        W 1699   0.497   0.157   4.251
  503W        W 1700   5.940   6.054   0.239
  504W        W 1701   4.342   2.977   1.604
  505W        W 1702   2.628   3.594   2.729
  506W        W 1703   3.020   1.291   5.221
  507W        W 1704   4.653   2.617   1.232
  508W        W 1705   7.318   0.141   6.262
  509W        W 1706   6.209   0.931   1.592
  510W        W 1707   0.889   5.918   0.791
  511W        W 1708   0.322   3.167   4.880
  512W        W 1709   6.479   5.093   4.224
  513W        W 1710   5.660   4.132   7.602
  514W        W 1711   1.283   4.695   6.268
  515W        W 1712   4.110   1.383   5.752
  516W        W 1713   4.118   4.271   1.307
  517W        W 1714   4.773   7.483   0.258
  518W        W 1715   7.238   4.283   6.320
  519W        W 1716   7.635   5.228   2.470
  520W        W 1717   0.324   3.610   2.813
  521W        W 1718   0.717   3.486   0.585
  522W        W 1719   6.343   2.126   3.278
  523W        W 1720   3.835   1.255   7.451
  524W        W 1721   3.187   0.885   5.582
  525W        W 1722   5.502   3.440   1.015
  526W        W 1723   3.401   7.094   6.261
  527W        W 1724   7.723   6.265   7.387
  528W        W 1725   5.805   4.808   1.212
  529W        W 1726   6.441   5.309   7.423
  530W        W 1727   5.144   5.357   7.685
  531W        W 1728   0.035   2.034   2.958
  532W        W 1729   3.375   4.107   0.903
  533W        W 1730   3.017   5.364   3.640
  534W        W 1731   0.425   4.345   5.912
  535W        W 1732   2.542   1.777   2.588
  536W        W 1733   5.808   0.551   0.559
  537W        W 1734   7.877   2.039   7.607
  538W        W 1735   5.204   3.543   1.426
  539W        W 1736   2.582   7.435   4.585
  540W        W 1737   1.677   2.861   5.916
  541W        W 1738   2.080   0.539   4.640
  542W        W 1739   4.426   0.669   2.879
  543W        W 1740   4.071   2.436   0.616
  544W        W 1741   5.158   5.228   6.585
  545W        W 1742   0.143   0.560   4.410
  546W        W 1743   4.606   5.967   5.119
  547W        W 1744   2.536   0.558   5.816
  548W        W 1745   7.413   4.681   5.948
  549W        W 1746   7.991   5.633   6.639
  550W        W 1747   3.832   7.376   0.280
  551W        W 1748   0.286   5.890   4.577
  552W        W 1749   2.265   7.063   5.248
  553W        W 1750   7.324   0.298   1.252
  554W        W 1751   2.160   2.927   2.892
  555W        W 1752   4.399   0.978   5.528
  556W        W 1753   4.993   5.267   2.821
  557W        W 1754   7.259   2.940   1.332
  558W        W 1755   2.877   6.251   5.587
  559W        W 1756   1.792   4.490   5.249
  560W        W 1757   3.396   7.434   1.537
  561W        W 1758   4.232   3.931   7.043
  562W        W 1759   3.495   4.730   6.042
  563W        W 1760   5.740   1.246   1.262
  564W        W 1761   3.007   1.081   6.393
  565W        W 1762   6.796   4.395   4.888
  566W        W 1763   3.604   3.499   6.074
  567W        W 1764   4.930   6.797   1.256
  568W        W 1765   2.289   3.106   4.016
  569W        W 1766   5.397   7.156   7.021
  570W        W 1767   1.186   5.085   5.902
  571W        W 1768   1.348   2.195   4.747
  572W        W 1769   5.230   6.346   6.416
  573W        W 1770   7.176   0.904   7.736
  574W        W 1771   6.100   1.214   7.252
  575W        W 1772   6.460   0.201   5.175
  576W        W 1773   4.819   3.146   4.692
  577W        W 1774   7.781   7.076   4.202
  578W        W 1775   5.101   1.691   1.163
  579W        W 1776   6.234   3.081   6.213
  580W        W 1777   2.383   7.524   6.951
  581W        W 1778   2.800   6.112   3.806
  582W        W 1779   7.563   0.563   0.850
  583W        W 1780   6.503   3.116   0.416
  584W        W 1781   5.289   4.868   1.395
  585W        W 1782   0.424   7.201   6.711
  586W        W 1783   0.152   2.032   6.016
  587W        W 1784   7.587   4.028   2.743
  588W        W 1785   2.291   0.858   7.014
  589W        W 1786   5.202   0.039   1.816
  590W        W 1787   3.216   2.553   6.908
  591W        W 1788   4.125   0.137   4.980
  592W        W 1789   4.016   0.967   6.795
  593W        W 1790   0.603   5.519   7.381
  594W        W 1791   5.652   1.070   7.518
  595W        W 1792   3.738   3.949   6.893
  596W        W 1793   6.105   3.523   5.085
  597W        W 1794   1.396   5.128   1.171
  598W        W 1795   5.814   6.463   4.070
  599W        W 1796   6.426   6.802   4.629
  600W        W 1797   1.918   1.408   3.199
  601W        W 1798   7.084   0.246   7.757
  602W        W 1799   7.535   3.451   6.572
  603W        W 1800   4.761   4.458   7.624
  604W        W 1801   5.476   5.506   3.062
  605W        W 1802   7.743   2.535   6.986
  606W        W 1803   3.772   5.184   5.908
  607W        W 1804   7.319   0.592   3.824
  608W        W 1805   0.942   3.312   3.162
  609W        W 1806   0.700   2.625   7.709
  610W        W 1807   7.696   4.389   5.619
  611W        W 1808   3.732   1.920   4.338
  612W        W 1809   2.483   6.525   4.522
  613W        W 1810   5.663   7.312   0.318
  614W        W 1811   5.389   2.908   7.218
  615W        W 1812   6.666   1.431   7.086
  616W        W 1813   7.727   7.693   5.756
  617W        W 1814   6.520   5.539   5.383
  618W        W 1815   3.053   0.148   6.574
  619W        W 1816   3.165   0.879   0.806
  620W        W 1817   2.648   2.429   4.900
  621W        W 1818   5.414   4.967   5.019
  622W        W 1819   5.643   4.973   1.712
  623W        W 1820   3.923   5.851   2.934
  624W        W 1821   1.047   0.730   0.842
  625W        W 1822   3.634   0.799   1.537
  626W        W 1823   3.739   6.172   4.685
  627W        W 1824   7.646   0.601   5.030
  628W        W 1825   7.994   6.359   3.127
  629W        W 1826   1.802   3.796   0.068
  630W        W 1827   4.654   7.471   0.948
  631W        W 1828   3.264   6.732   4.230
  632W        W 1829   5.444   5.721   6.519
  633W        W 1830   0.677   1.078   1.695
  634W        W 1831   7.017   4.256   1.494
  635W        W 1832   6.891   6.336   5.858
  636W        W 1833   1.614   5.297   3.790
  637W        W 1834   1.659   3.056   1.384
  638W        W 1835   1.408   3.908   7.214
  639W        W 1836   5.187   5.137   2.376
  640W        W 1837   4.676   2.608   2.394
  641W        W 1838   5.945   7.734   0.261
  642W        W 1839   1.525   2.450   0.197
  643W        W 1840   0.843   5.491   6.891
  644W        W 1841   7.895   6.664   1.385
  645W        W 1842   6.962   5.885   4.657
  646W        W 1843   4.583   7.146   2.891
  647W        W 1844   1.597   5.021   4.554
  648W        W 1845   4.845   3.903   4.494
  649W        W 1846   1.797   6.203   3.493
  650W        W 1847   7.135   0.546   6.432
  651W        W 1848   2.900   5.411   5.076
  652W        W 1849   3.065   2.670   2.662
  653W        W 1850   3.117   0.315   2.395
  654W        W 1851   6.485   0.695   2.439
  655W        W 1852   2.286   5.863   6.341
  656W        W 1853   3.708   0.846   7.169
  657W        W 1854   5.315   1.012   2.156
  658W        W 1855   1.212   6.050   4.135
  659W        W 1856   4.418   4.685   2.333
  660W        W 1857   5.465   5.844   3.535
  661W        W 1858   3.570   2.692   4.939
  662W        W 1859   3.117   3.245   0.875
  663W        W 1860   3.302   5.552   5.361
  664W        W 1861   7.441   2.521   4.771
  665W        W 1862   5.560   3.464   4.792
  666W        W 1863   3.114   6.425   0.093
  667W        W 1864   4.183   0.432   5.722
  668W        W 1865   3.636   4.251   6.241
  669W        W 1866   4.758   3.178   2.262
  670W        W 1867   1.587   1.163   3.531
  671W        W 1868   0.063   3.334   1.877
  672W        W 1869   4.492   2.315   5.164
  673W        W 1870   6.124   5.431   3.999
  674W        W 1871   2.929   3.730   6.663
  675W        W 1872   4.720   2.586   0.151
  676W        W 1873   4.892   0.678   3.118
  677W        W 1874   6.602   4.315   3.583
  678W        W 1875   5.543   6.725   3.066
  679W        W 1876   4.428   4.893   7.861
  680W        W 1877   1.349   4.504   5.750
  681W        W 1878   7.084   3.028   2.700
  682W        W 1879   5.021   6.502   4.099
  683W        W 1880   7.200   6.199   0.631
  684W        W 1881   7.508   3.429   0.331
  685W        W 1882   7.863   0.510   3.663
  686W        W 1883   0.355   1.834   0.726
  687W        W 1884   3.006   4.287   2.349
  688W        W 1885   7.125   2.817   3.551
  689W        W 1886   6.192   5.055   6.704
  690W        W 1887   0.096   5.650   2.097
  691W        W 1888   5.053   5.760   2.776
  692W        W 1889   0.045   5.409   0.230
  693W        W 1890   3.246   0.574   7.868
  694W        W 1891   6.209   6.210   5.412
  695W        W 1892   0.915   3.151   0.918
  696W        W 1893   1.071   5.493   0.947
  697W        W 1894   0.202   1.289   7.218
  698W        W 1895   7.595   7.058   4.752
  699W        W 1896   5.221   7.081   1.783
  700W        W 1897   4.346   7.524   2.685
  701W        W 1898   2.680   2.372   6.812
  702W        W 1899   5.840   5.692   4.668
  703W        W 1900   2.766   1.303   5.679
  704W        W 1901   6.359   6.594   1.848
  705W        W 1902   5.430   2.222   2.987
  706W        W 1903   4.265   1.979   4.152
  707W        W 1904   0.352   0.725   0.326
  708W        W 1905   5.441   5.763   1.841
  709W        W 1906   0.531   2.365   5.632
  710W        W 1907   2.954   1.700   1.674
  711W        W 1908   7.621   3.237   5.727
  712W        W 1909   1.721   3.936   3.585
  713W        W 1910   3.599   7.066   1.749
  714W        W 1911   6.342   3.027   5.733
  715W        W 1912   4.090   4.384   7.175
  716W        W 1913   2.264   5.237   2.081
  717W        W 1914   5.913   7.713   4.093
  718W        W 1915   3.245   6.402   1.144
  719W        W 1916   3.932   3.889   7.439
  720W        W 1917   5.110   0.302   7.294
  721W        W 1918   2.502   6.522   3.966
  722W        W 1919   4.040   7.897   1.758
  723W        W 1920   5.233   2.606   3.191
  724W        W 1921   5.567   7.716   0.647
  725W        W 1922   4.869   1.991   7.449
  726W        W 1923   3.390   3.753   2.940
  727W        W 1924   0.812   1.401   2.087
  728W        W 1925   3.202   6.231   7.403
  729W        W 1926   1.524   6.920   4.096
  730W        W 1927   7.420   1.326   1.427
  731W        W 1928   2.250   3.925   2.825
  732W        W 1929   2.017   4.018   0.446
  733W        W 1930   4.214   0.131   6.769
  734W        W 1931   7.651   2.160   5.691
  735W        W 1932   7.147   2.379   4.286
  736W        W 1933   3.022   1.017   1.382
  737W        W 1934   6.438   3.904   5.094
  738W        W 1935   7.000   6.917   1.133
  739W        W 1936   3.171   7.858   5.933
  740W        W 1937   5.918   1.346   4.481
  741W        W 1938   7.354   5.835   6.709
  742W        W 1939   1.022   7.298   5.068
  743W        W 1940   1.637   3.652   1.536
  744W        W 1941   4.700   5.783   3.570
  745W        W 1942   5.083   0.796   4.373
  746W        W 1943   3.569   7.764   1.852
  747W        W 1944   1.888   2.036   1.124
  748W        W 1945   3.141   5.918   4.320
  749W        W 1946   1.054   6.590   4.219
  750W        W 1947   3.662   1.541   5.473
  751W        W 1948   3.922   4.919   2.477
  752W        W 1949   6.678   2.203   6.575
  753W        W 1950   4.582   7.078   7.520
  754W        W 1951   7.080   0.317   2.566
  755W        W 1952   7.047   0.066   2.996
  756W        W 1953   2.137   6.064   3.184
  757W        W 1954   5.599   1.795   1.442
  758W        W 1955   1.079   1.219   7.341
  759W        W 1956   6.324   7.800   5.275
  760W        W 1957   3.814   6.348   3.067
  761W        W 1958   0.638   6.022   7.278
  762W        W 1959   3.896   0.582   2.569
  763W        W 1960   7.838   7.938   6.760
  764W        W 1961   4.748   0.991   5.906
  765W        W 1962   1.694   6.996   6.608
  766W        W 1963   4.141   2.484   1.491
  767W        W 1964   4.366   4.879   1.892
  768W        W 1965   4.322   4.220   2.198
  769W        W 1966   7.712   6.556   5.491
  770W        W 1967   6.360   0.096   6.675
  771W        W 1968   3.641   2.035   4.803
  772W        W 1969   5.137   0.074   6.827
  773W        W 1970   1.201   2.145   0.449
  774W        W 1971   3.286   6.929   2.196
  775W        W 1972   7.891   6.294   0.069
  776W        W 1973   6.291   2.003   5.622
  777W        W 1974   6.843   6.613   4.968
  778W        W 1975   0.372   5.154   0.568
  779W        W 1976   0.192   7.138   1.280
  780W        W 1977   3.695   6.274   7.428
  781W        W 1978   1.536   1.917   5.082
  782W        W 1979   7.188   6.624   5.549
  783W        W 1980   3.745   5.473   2.203
  784W        W 1981   2.387   1.610   3.010
  785W        W 1982   2.750   7.132   5.512
  786W        W 1983   1.472   4.161   3.223
  787W        W 1984   3.574   6.717   1.410
  788W        W 1985   5.807   3.849   2.025
  789W        W 1986   2.298   5.809   2.189
  790W        W 1987   1.396   7.287   3.533
  791W        W 1988   1.489   6.440   3.203
  792W        W 1989   5.793   4.260   3.313
  793W        W 1990   6.593   6.010   1.145
  794W        W 1991   3.303   7.064   4.739
  795W        W 1992   5.584   4.019   1.010
  796W        W 1993   7.298   7.951   2.552
  797W        W 1994   7.551   2.447   6.509
  798W        W 1995   4.137   1.128   2.129
  799W        W 1996   3.710   2.616   7.064
  800W        W 1997   2.771   3.120   1.212
  801W        W 1998   7.193   3.845   6.617
  802W        W 1999   3.496   1.347   0.700
  803W        W 2000   4.900   1.727   0.701
  804W        W 2001   5.959   1.680   4.854
  805W        W 2002   4.010   1.473   0.865
  806W        W 2003   6.760   3.430   2.768
  807W        W 2004   2.220   5.611   5.922
  808W        W 2005   5.565   4.482   1.544
  809W        W 2006   0.017   2.878   5.815
  810W        W 2007   5.654   3.685   5.857
  811W        W 2008   0.603   3.088   3.538
  812W        W 2009   2.782   0.548   7.621
  813W        W 2010   0.824   2.973   4.029
  814W        W 2011   3.367   0.318   5.128
  815W        W 2012   4.797   7.291   3.383
  816W        W 2013   2.473   6.320   6.284
  817W        W 2014   2.635   3.243   6.778
  818W        W 2015   2.664   7.910   6.859
  819W        W 2016   7.209   0.112   5.633
  820W        W 2017   5.711   6.140   6.348
  821W        W 2018   6.674   2.198   4.234
  822W        W 2019   1.766   4.509   2.203
  823W        W 2020   1.742   2.104   3.805
  824W        W 2021   3.532   5.255   7.353
  825W        W 2022   6.076   2.859   0.746
  826W        W 2023   6.226   3.159   6.787
  827W        W 2024   6.840   2.037   1.491
  828W        W 2025   4.746   7.648   6.686
  829W        W 2026   6.275   7.544   1.196
  830W        W 2027   6.285   2.643   0.354
  831W        W 2028   3.694   0.903   0.452
  832W        W 2029   1.893   0.839   0.304
  833W        W 2030   5.081   3.448   5.746
  834W        W 2031   7.060   2.886   2.249
  835W        W 2032   4.021   3.014   6.903
  836W        W 2033   1.218   0.494   3.184
  837W        W 2034   1.938   1.209   7.165
  838W        W 2035   3.078   3.706   0.687
  839W        W 2036   5.653   2.313   7.951
  840W        W 2037   0.735   2.826   3.144
  841W        W 2038   1.304   4.926   7.471
  842W        W 2039   4.825   4.081   6.240
  843W        W 2040   5.556   0.551   6.714
  844W        W 2041   6.728   3.740   2.280
  845W        W 2042   5.114   4.551   0.243
  846W        W 2043   7.038   6.970   1.620
  847W        W 2044   3.822   4.518   1.635
  848W        W 2045   4.001   1.172   5.234
  849W        W 2046   0.496   5.291   6.603
  850W        W 2047   3.944   7.955   0.814
  851W        W 2048   0.703   1.015   5.857
  852W        W 2049   7.105   6.582   2.538
  853W        W 2050   5.293   4.796   6.354
  854W        W 2051   0.915   3.159   7.669
  855W        W 2052   1.332   0.205   1.773
  856W        W 2053   5.819   7.572   7.811
  857W        W 2054   4.667   0.544   5.546
  858W        W 2055   5.235   5.420   5.229
  859W        W 2056   3.351   4.753   2.063
  860W        W 2057   5.804   2.667   1.240
  861W        W 2058   4.362   1.525   5.319
  862W        W 2059   7.313   0.298   1.797
  863W        W 2060   3.087   7.268   4.331
  864W        W 2061   2.723   7.498   7.370
  865W        W 2062   0.068   3.400   6.557
  866W        W 2063   2.906   7.091   6.429
  867W        W 2064   3.296   3.517   5.610
  868W        W 2065   5.860   4.474   0.835
  869W        W 2066   3.140   5.477   4.628
  870W        W 2067   6.893   6.693   6.422
  871W        W 2068   4.391   2.575   3.360
  872W        W 2069   2.906   6.379   4.289
  873W        W 2070   2.871   6.934   7.424
  874W        W 2071   3.712   2.699   1.305
  875W        W 2072   1.796   1.134   5.320
  876W        W 2073   4.092   2.239   3.547
  877W        W 2074   1.500   0.397   0.922
  878W        W 2075   5.036   3.241   1.043
  879W        W 2076   4.943   4.920   7.811
  880W        W 2077   4.566   3.157   5.852
  881W        W 2078   2.943   6.998   3.799
  882W        W 2079   6.608   1.653   0.232
  883W        W 2080   1.326   5.599   6.604
  884W        W 2081   2.104   3.453   2.841
  885W        W 2082   6.428   6.822   5.303
  886W        W 2083   3.958   6.118   6.932
  887W        W 2084   4.563   5.871   1.652
  888W        W 2085   0.128   4.512   3.746
  889W        W 2086   6.709   2.108   2.927
  890W        W 2087   1.515   2.327   6.240
  891W        W 2088   4.465   5.572   7.382
  892W        W 2089   6.941   6.530   3.030
  893W        W 2090   5.805   4.177   6.037
  894W        W 2091   7.004   1.155   1.234
  895W        W 2092   0.388   3.811   5.758
  896W        W 2093   4.005   3.468   7.190
  897W        W 2094   6.670   0.107   7.514
  898W        W 2095   5.202   7.213   4.833
  899W        W 2096   0.297   4.506   5.010
  900W        W 2097   0.271   4.677   5.534
  901W        W 2098   4.491   2.303   7.446
  902W        W 2099   4.296   4.753   2.859
  903W        W 2100   3.337   2.878   3.083
  904W        W 2101   3.582   0.331   2.203
  905W        W 2102   6.898   1.536   4.724
  906W        W 2103   5.851   5.987   3.251
  907W        W 2104   4.864   5.840   1.046
  908W        W 2105   0.518   3.301   1.767
  909W        W 2106   5.552   1.919   4.293
  910W        W 2107   6.644   6.410   3.846
  911W        W 2108   5.767   1.207   5.472
  912W        W 2109   7.590   5.210   7.218
  913W        W 2110   6.334   2.871   1.214
  914W        W 2111   7.759   4.400   7.436
  915W        W 2112   1.164   0.380   1.302
  916W        W 2113   7.745   7.456   3.841
  917W        W 2114   1.428   5.400   5.470
  918W        W 2115   7.012   3.763   1.423
  919W        W 2116   2.536   2.445   3.485
  920W        W 2117   2.839   4.805   5.160
  921W        W 2118   6.972   6.161   3.542
  922W        W 2119   0.454   3.077   0.898
  923W        W 2120   4.396   0.151   0.998
  924W        W 2121   3.757   0.708   5.103
  925W        W 2122   4.030   5.915   7.447
  926W        W 2123   3.198   1.616   3.374
  927W        W 2124   7.319   5.022   0.938
  928W        W 2125   6.514   6.061   2.216
  929W        W 2126   3.070   4.476   4.871
  930W        W 2127   0.221   2.667   1.105
  931W        W 2128   5.527   2.920   0.879
  932W        W 2129   7.000   1.626   3.893
  933W        W 2130   6.018   0.832   1.040
  934W        W 2131   3.547   2.545   2.758
  935W        W 2132   1.077   0.354   4.798
  936W        W 2133   5.689   2.920   2.350
  937W        W 2134   6.357   6.420   4.224
  938W        W 2135   2.504   2.739   0.926
  939W        W 2136   7.246   1.188   5.668
  940W        W 2137   5.555   0.154   7.125
  941W        W 2138   0.784   5.443   0.582
  942W        W 2139   4.456   7.403   5.796
  943W        W 2140   4.675   2.752   1.870
  944W        W 2141   4.158   4.184   3.586
  945W        W 2142   2.269   6.175   1.319
  946W        W 2143   0.625   5.859   1.817
  947W        W 2144   4.490   2.764   5.433
  948W        W 2145   1.819   5.613   0.564
  949W        W 2146   0.003   4.041   0.383
  950W        W 2147   2.220   4.757   6.135
  951W        W 2148   6.730   3.597   1.028
  952W        W 2149   7.406   6.131   6.248
  953W        W 2150   7.332   7.423   1.373
  954W        W 2151   4.591   4.252   3.345
  955W        W 2152   4.236   3.011   7.500
  956W        W 2153   1.180   6.272   4.569
  957W        W 2154   6.335   6.960   4.023
  958W        W 2155   7.113   1.939   1.921
  959W        W 2156   7.415   4.354   2.392
  960W        W 2157   2.056   1.011   2.319
  961W        W 2158   6.751   7.606   6.813
  962W        W 2159   1.908   5.662   4.953
  963W        W 2160   4.602   6.999   0.081
  964W        W 2161   5.422   4.965   0.270
  965W        W 2162   6.280   6.292   7.885
  966W        W 2163   0.941   6.014   0.318
  967W        W 2164   6.389   7.684   2.789
  968W        W 2165   0.843   4.714   3.298
  969W        W 2166   1.900   0.251   4.031
  970W        W 2167   5.444   2.473   2.541
  971W        W 2168   5.713   1.745   1.961
  972W        W 2169   2.799   3.654   3.432
  973W        W 2170   5.449   3.091   3.041
  974W        W 2171   6.268   4.709   2.901
  975W        W 2172   5.641   5.643   3.982
  976W        W 2173   7.776   5.874   7.021
  977W        W 2174   4.843   4.339   0.739
  978W        W 2175   0.354   7.844   6.757
  979W        W 2176   7.146   0.763   5.058
  980W        W 2177   7.476   2.066   4.116
  981W        W 2178   3.928   6.100   6.005
  982W        W 2179   4.949   4.583   3.597
  983W        W 2180   3.142   6.756   5.561
  984W        W 2181   1.693   3.645   5.545
  985W        W 2182   1.664   3.058   4.620
  986W        W 2183   6.564   2.752   0.738
  987W        W 2184   2.044   4.616   6.907
  988W        W 2185   4.830   4.724   1.087
  989W        W 2186   3.505   2.500   0.225
  990W        W 2187   7.628   3.244   1.543
  991W        W 2188   5.518   2.090   3.465
  992W        W 2189   2.215   3.016   6.558
  993W        W 2190   6.436   0.366   3.845
  994W        W 2191   7.726   2.999   7.922
  995W        W 2192   6.981   4.385   5.350
  996W        W 2193   1.697   7.012   2.333
  997W        W 2194   2.470   5.045   6.798
  998W        W 2195   2.699   4.150   4.825
  999W        W 2196   0.296   1.363   4.181
 1000W        W 2197   3.471   5.128   2.408
 1001W        W 2198   3.724   1.509   3.200
 1002W        W 2199   1.622   3.374   2.600
 1003W        W 2200   4.354   7.543   3.313
 1004W        W 2201   7.034   5.787   3.834
 1005W        W 2202   3.507   3.142   5.294
 1006W        W 2203   5.145   6.054   6.881
 1007W        W 2204   3.004   0.352   0.136
 1008W        W 2205   5.241   3.473   4.395
 1009W        W 2206   4.364   0.457   7.512
 1010W        W 2207   0.452   4.205   7.641
 1011W        W 2208   5.168   0.548   2.339
 1012W        W 2209   1.032   4.046   6.922
 1013W        W 2210   2.368   6.709   7.733
 1014W        W 2211   5.465   5.845   0.242
 1015W        W 2212   3.378   4.676   0.238
 1016W        W 2213   3.341   5.214   1.690
 1017W        W 2214   5.398   2.125   6.481
 1018W        W 2215   4.562   1.263   0.791
 1019W        W 2216   1.465   6.290   7.881
 1020W        W 2217   2.826   6.337   7.059
 1021W        W 2218   4.891   6.400   5.183
 1022W        W 2219   0.909   2.548   5.958
 1023W        W 2220   2.804   7.722   6.385
 1024W        W 2221   1.821   0.355   0.484
 1025W        W 2222   0.775   7.207   6.385
 1026W        W 2223   1.403   1.589   1.921
 1027W        W 2224   2.191   2.901   7.545
 1028W        W 2225   6.060   1.427   2.206
 1029W        W 2226   2.874   4.892   1.459
 1030W        W 2227   1.834   0.195   2.522
 1031W        W 2228   6.239   7.300   5.351
 1032W        W 2229   0.777   3.832   3.508
 1033W        W 2230   5.149   6.670   6.909
 1034W        W 2231   6.085   1.512   6.300
 1035W        W 2232   6.087   1.336   3.709
 1036W        W 2233   0.385   4.034   4.797
 1037W        W 2234   6.067   3.769   3.175
 1038W        W 2235   0.482   1.379   5.674
 1039W        W 2236   3.665   3.092   5.783
 1040W        W 2237   5.309   6.489   1.442
 1041W        W 2238   3.938   1.744   6.996
 1042W        W 2239   0.524   3.550   3.870
 1043W        W 2240   4.999   6.683   5.574
 1044W        W 2241   1.681   4.256   4.748
 1045W        W 2242   0.938   1.418   6.009
 1046W        W 2243   5.440   4.797   3.544
 1047W        W 2244   4.939   7.991   5.248
 1048W        W 2245   4.667   0.450   5.005
 1049W        W 2246   1.912   7.623   0.138
 1050W        W 2247   5.143   1.691   1.760
 1051W        W 2248   3.360   2.001   4.042
 1052W        W 2249   1.248   6.889   3.215
 1053W        W 2250   0.386   0.180   0.625
 1054W        W 2251   4.866   2.164   0.978
 1055W        W 2252   7.818   0.030   0.051
 1056W        W 2253   1.303   5.078   1.776
 1057W        W 2254   0.217   5.175   1.127
 1058W        W 2255   2.460   5.193   5.213
 1059W        W 2256   3.241   7.779   2.356
 1060W        W 2257   6.462   0.782   4.379
 1061W        W 2258   5.998   1.762   4.130
 1062W        W 2259   2.632   3.609   0.299
 1063W        W 2260   6.247   1.885   2.814
 1064W        W 2261   0.016   0.103   4.674
 1065W        W 2262   0.791   3.735   5.499
 1066W        W 2263   1.278   1.701   4.585
 1067W        W 2264   6.061   1.630   1.049
 1068W        W 2265   7.505   0.577   6.032
 1069W        W 2266   7.471   0.804   3.433
 1070W        W 2267   0.007   7.473   7.485
 1071W        W 2268   0.304   6.595   0.094
 1072W        W 2269   6.980   3.724   5.751
 1073W        W 2270   7.267   0.286   3.432
 1074W        W 2271   6.712   4.690   7.639
 1075W        W 2272   0.985   5.964   3.333
 1076W        W 2273   6.265   4.431   5.015
 1077W        W 2274   6.228   7.698   3.540
 1078W        W 2275   3.817   0.298   5.391
 1079W        W 2276   2.476   0.913   7.524
 1080W        W 2277   6.121   3.427   7.186
 1081W        W 2278   4.966   3.303   3.037
 1082W        W 2279   7.453   2.320   5.309
 1083W        W 2280   7.640   7.552   7.172
 1084W        W 2281   2.261   0.455   0.278
 1085W        W 2282   0.618   6.358   1.648
 1086W        W 2283   5.950   2.835   4.406
 1087W        W 2284   3.496   0.941   7.629
 1088W        W 2285   3.541   0.154   2.723
 1089W        W 2286   3.276   2.798   1.962
 1090W        W 2287   6.605   4.633   3.981
 1091W        W 2288   3.938   4.747   0.571
 1092W        W 2289   3.676   6.414   3.541
 1093W        W 2290   5.639   1.258   2.512
 1094W        W 2291   6.580   2.519   7.484
 1095W        W 2292   3.073   6.453   2.278
 1096W        W 2293   1.672   7.002   0.107
 1097W        W 2294   4.136   5.789   0.177
 1098W        W 2295   6.582   2.142   0.206
 1099W        W 2296   3.323   6.757   7.436
 1100W        W 2297   7.386   2.328   6.003
 1101W        W 2298   4.897   3.388   6.199
 1102W        W 2299   3.152   1.405   6.034
 1103W        W 2300   4.086   7.244   4.600
 1104W        W 2301   7.787   1.222   1.973
 1105W        W 2302   6.495   5.484   0.012
 1106W        W 2303   0.973   2.798   0.005
 1107W        W 2304   2.719   3.061   6.067
 1108W        W 2305   0.311   2.970   6.510
 1109W        W 2306   3.989   1.950   5.393
 1110W        W 2307   4.207   2.560   7.067
 1111W        W 2308   3.163   6.994   1.347
 1112W        W 2309   3.157   2.765   4.711
 1113W        W 2310   7.860   4.910   5.399
 1114W        W 2311   7.415   4.168   0.704
 1115W        W 2312   6.256   1.267   4.194
 1116W        W 2313   3.739   5.514   1.710
 1117W        W 2314   4.923   1.444   5.399
 1118W        W 2315   2.640   2.948   4.716
 1119W        W 2316   3.330   4.647   6.497
 1120W        W 2317   5.287   2.289   7.423
 1121W        W 2318   7.015   5.663   5.231
 1122W        W 2319   5.105   5.474   6.177
 1123W        W 2320   7.078   6.166   5.351
 1124W        W 2321   0.562   6.696   4.224
 1125W        W 2322   7.264   2.924   4.477
 1126W        W 2323   4.618   4.853   5.774
 1127W        W 2324   5.446   0.715   3.238
 1128W        W 2325   1.736   7.025   0.934
 1129W        W 2326   4.487   5.108   6.605
 1130W        W 2327   3.494   1.117   5.266
 1131W        W 2328   6.668   2.283   5.422
 1132W        W 2329   7.317   2.931   5.472
 1133W        W 2330   1.718   5.164   5.019
 1134W        W 2331   5.900   4.294   2.348
 1135W        W 2332   4.167   7.871   5.845
 1136W        W 2333   0.744   0.647   3.507
 1137W        W 2334   1.061   2.166   6.440
 1138W        W 2335   3.500   4.993   3.530
 1139W        W 2336   1.456   6.088   6.783
 1140W        W 2337   4.093   7.270   4.077
 1141W        W 2338   4.486   1.512   3.592
 1142W        W 2339   7.591   1.988   3.057
 1143W        W 2340   0.176   4.104   4.233
 1144W        W 2341   4.662   3.662   5.389
 1145W        W 2342   3.102   2.998   5.602
 1146W        W 2343   2.564   0.491   4.434
 1147W        W 2344   2.932   6.778   4.683
 1148W        W 2345   0.834   4.074   5.082
 1149W        W 2346   0.487   1.568   6.136
 1150W        W 2347   1.649   2.257   0.717
 1151W        W 2348   3.816   3.033   2.810
 1152W        W 2349   7.100   3.206   5.790
 1153W        W 2350   7.677   5.164   1.867
 1154W        W 2351   0.980   6.467   3.292
 1155W        W 2352   3.674   6.573   5.610
 1156W        W 2353   1.498   1.382   4.905
 1157W        W 2354   4.399   2.224   1.137
 1158W        W 2355   1.079   0.800   4.328
 1159W        W 2356   6.991   5.747   0.853
 1160W        W 2357   3.953   0.469   0.623
 1161W        W 2358   7.739   5.277   1.321
 1162W        W 2359   5.560   2.026   4.787
 1163W        W 2360   5.736   6.995   6.161
 1164W        W 2361   4.503   2.133   5.680
 1165W        W 2362   0.921   6.228   2.177
 1166W        W 2363   1.817   7.156   7.400
 1167W        W 2364   1.042   6.311   7.583
 1168W        W 2365   6.086   5.191   1.483
 1169W        W 2366   4.388   0.124   0.498
 1170W        W 2367   6.918   4.515   6.020
 1171W        W 2368   6.321   3.066   5.216
 1172W        W 2369   7.212   6.156   2.290
 1173W        W 2370   6.741   2.980   6.628
 1174W        W 2371   2.993   6.432   0.665
 1175W        W 2372   5.777   5.716   7.713
 1176W        W 2373   6.464   2.630   6.372
 1177W        W 2374   1.910   7.212   0.497
 1178W        W 2375   2.532   6.671   0.820
 1179W        W 2376   4.139   7.036   1.675
 1180W        W 2377   3.777   5.041   3.983
 1181W        W 2378   2.492   6.273   2.169
 1182W        W 2379   3.737   2.660   6.034
 1183W        W 2380   0.056   0.427   2.832
 1184W        W 2381   6.219   5.873   6.812
 1185W        W 2382   2.025   3.961   7.673
 1186W        W 2383   5.243   3.528   3.408
 1187W        W 2384   3.781   0.367   1.725
 1188W        W 2385   7.508   0.166   2.258
 1189W        W 2386   5.340   6.059   2.541
 1190W        W 2387   4.344   3.901   3.061
 1191W        W 2388   1.347   6.122   2.686
 1192W        W 2389   2.514   3.844   0.708
 1193W        W 2390   6.884   0.578   7.417
 1194W        W 2391   4.079   6.023   4.351
 1195W        W 2392   4.425   1.954   7.083
 1196W        W 2393   4.496   2.126   2.183
 1197W        W 2394   4.290   5.304   1.647
 1198W        W 2395   5.587   2.360   1.548
 1199W        W 2396   1.800   6.958   4.553
 1200W        W 2397   0.347   5.778   5.098
 1201W        W 2398   4.602   2.448   0.681
 1202W        W 2399   0.176   3.893   3.716
 1203W        W 2400   2.342   0.988   4.635
 1204W        W 2401   6.373   3.359   3.339
 1205W        W 2402   4.649   1.885   4.478
 1206W        W 2403   6.861   1.993   2.479
 1207W        W 2404   6.455   5.133   2.675
 1208W        W 2405   5.481   0.448   7.577
 1209W        W 2406   4.876   1.732   6.991
 1210W        W 2407   0.850   0.708   2.890
 1211W        W 2408   1.607   3.627   7.575
 1212W        W 2409   4.993   6.619   1.777
 1213W        W 2410   0.447   3.259   0.140
 1214W        W 2411   6.302   6.449   0.468
 1215W        W 2412   5.914   2.344   3.234
 1216W        W 2413   1.936   7.458   1.801
 1217W        W 2414   2.191   5.884   0.891
 1218W        W 2415   0.403   0.677   2.529
 1219W        W 2416   3.607   4.399   5.713
 1220W        W 2417   6.651   4.122   5.875
 1221W        W 2418   3.650   1.181   5.817
 1222W        W 2419   1.304   2.260   7.257
 1223W        W 2420   0.355   6.905   2.535
 1224W        W 2421   6.057   2.553   2.331
 1225W        W 2422   6.922   4.117   1.982
 1226W        W 2423   1.998   4.181   3.126
 1227W        W 2424   3.362   7.821   7.687
 1228W        W 2425   3.696   3.430   6.748
 1229W        W 2426   6.034   3.740   0.950
 1230W        W 2427   3.728   0.913   6.345
 1231W        W 2428   3.315   4.899   2.817
 1232W        W 2429   5.217   4.981   5.881
 1233W        W 2430   0.594   0.090   6.022
 1234W        W 2431   5.230   5.305   1.880
 1235W        W 2432   3.032   1.755   2.519
 1236W        W 2433   4.184   5.626   5.296
 1237W        W 2434   2.294   6.490   1.731
 1238W        W 2435   5.000   2.260   2.551
 1239W        W 2436   3.596   2.501   0.732
 1240W        W 2437   0.936   4.322   6.089
 1241W        W 2438   0.833   7.622   6.778
 1242W        W 2439   4.062   5.318   4.870
 1243W        W 2440   2.040   0.260   5.024
 1244W        W 2441   1.014   0.208   4.188
 1245W        W 2442   0.862   6.538   0.251
 1246W        W 2443   5.894   7.172   3.957
 1247W        W 2444   1.124   3.015   2.735
 1248W        W 2445   3.539   4.136   4.956
 1249W        W 2446   3.578   1.992   7.916
 1250W        W 2447   0.325   0.641   1.620
 1251W        W 2448   4.457   7.728   5.363
 1252W        W 2449   1.853   7.749   2.223
 1253W        W 2450   1.550   0.760   5.615
 1254W        W 2451   0.517   7.623   7.632
 1255W        W 2452   3.356   7.307   0.143
 1256W        W 2453   7.025   4.993   6.147
 1257W        W 2454   2.686   1.844   5.857
 1258W        W 2455   1.355   0.207   2.311
 1259W        W 2456   4.635   5.394   4.002
 1260W        W 2457   4.323   6.866   3.803
 1261W        W 2458   6.591   2.008   1.994
 1262W        W 2459   2.815   2.610   7.300
 1263W        W 2460   6.963   0.777   3.486
 1264W        W 2461   6.482   3.851   2.716
 1265W        W 2462   3.985   7.425   0.898
 1266W        W 2463   5.171   7.381   2.880
 1267W        W 2464   4.114   0.242   2.343
 1268W        W 2465   4.686   0.030   7.445
 1269W        W 2466   2.811   2.637   5.717
 1270W        W 2467   5.301   0.539   0.683
 1271W        W 2468   3.173   1.837   7.517
 1272W        W 2469   0.429   5.027   5.229
 1273W        W 2470   1.914   4.956   0.181
 1274W        W 2471   5.814   0.605   7.206
 1275W        W 2472   2.414   3.338   3.550
 1276W        W 2473   5.515   3.154   0.293
 1277W        W 2474   5.947   0.852   4.478
 1278W        W 2475   7.072   0.464   5.924
 1279W        W 2476   5.108   5.571   3.873
 1280W        W 2477   6.069   3.507   6.110
 1281W        W 2478   7.708   1.714   7.231
 1282W        W 2479   1.076   5.248   4.481
 1283W        W 2480   7.738   1.006   6.227
 1284W        W 2481   3.882   7.454   1.443
 1285W        W 2482   7.136   7.857   5.127
 1286W        W 2483   4.823   2.843   3.268
 1287W        W 2484   1.508   2.550   1.237
 1288W        W 2485   3.943   0.452   6.544
 1289W        W 2486   7.671   4.616   1.903
 1290W        W 2487   4.984   0.197   5.627
 1291W        W 2488   2.006   2.364   7.588
 1292W        W 2489   1.266   3.859   5.422
 1293W        W 2490   4.074   1.852   1.220
 1294W        W 2491   2.767   6.856   2.116
 1295W        W 2492   2.694   1.833   6.786
 1296W        W 2493   3.873   2.918   0.695
 1297W        W 2494   3.132   5.419   7.093
 1298W        W 2495   5.136   5.654   2.250
 1299W        W 2496   5.669   0.753   6.255
 1300W        W 2497   2.224   1.472   2.370
 1301W        W 2498   3.789   6.089   2.538
 1302W        W 2499   2.176   6.495   3.556
 1303W        W 2500   3.637   6.393   4.251
 1304W        W 2501   4.946   7.098   3.972
 1305W        W 2502   2.105   6.729   6.482
 1306W        W 2503   0.188   7.660   5.751
 1307W        W 2504   6.740   4.741   2.733
 1308W        W 2505   2.082   3.323   4.749
 1309W        W 2506   5.952   6.594   1.539
 1310W        W 2507   1.833   4.741   7.357
 1311W        W 2508   6.362   5.429   3.533
 1312W        W 2509   2.922   5.931   5.199
 1313W        W 2510   1.617   6.714   2.744
 1314W        W 2511   4.899   1.989   5.242
 1315W        W 2512   6.758   2.202   4.719
 1316W        W 2513   5.590   6.386   6.761
 1317W        W 2514   1.693   7.448   6.320
 1318W        W 2515   0.718   1.108   1.178
 1319W        W 2516   5.579   3.161   7.796
 1320W        W 2517   1.112   3.647   0.840
 1321W        W 2518   6.331   0.780   2.972
 1322W        W 2519   4.908   4.412   5.364
 1323W        W 2520   7.587   5.823   0.334
 1324W        W 2521   7.290   1.129   3.799
 1325W        W 2522   3.714   2.040   1.465
 1326W        W 2523   7.237   5.494   2.855
 1327W        W 2524   1.778   6.030   1.271
 1328W        W 2525   7.591   2.620   1.561
 1329W        W 2526   1.116   5.761   4.478
 1330W        W 2527   3.902   6.224   5.291
 1331W        W 2528   7.548   7.130   7.445
 1332W        W 2529   4.078   6.811   1.228
 1333W        W 2530   7.388   6.661   7.393
 1334W        W 2531   2.617   2.730   5.294
 1335W        W 2532   0.066   4.405   4.621
 1336W        W 2533   1.082   5.121   3.580
 1337W        W 2534   0.164   6.131   6.648
 1338W        W 2535   5.822   4.122   0.417
 1339W        W 2536   3.554   3.598   7.563
 1340W        W 2537   0.559   3.992   6.820
 1341W        W 2538   1.894   1.102   7.970
 1342W        W 2539   4.534   1.931   3.184
 1343W        W 2540   1.318   0.987   7.823
 1344W        W 2541   5.336   6.642   0.219
 1345W        W 2542   5.751   4.630   2.029
 1346W        W 2543   2.358   2.337   7.234
 1347W        W 2544   5.462   7.445   5.905
 1348W        W 2545   3.398   6.171   5.759
 1349W        W 2546   5.394   7.332   3.924
 1350W        W 2547   5.947   3.208   1.205
 1351W        W 2548   6.251   4.531   2.084
 1352W        W 2549   5.677   0.823   1.485
 1353W        W 2550   0.181   0.313   7.472
 1354W        W 2551   4.061   5.772   6.440
 1355W        W 2552   4.046   2.412   5.076
 1356W        W 2553   7.788   3.530   1.096
 1357W        W 2554   0.514   7.411   3.602
 1358W        W 2555   1.272   7.091   6.285
 1359W        W 2556   6.063   2.971   2.700
 1360W        W 2557   4.540   2.522   6.452
 1361W        W 2558   7.183   0.281   0.651
 1362W        W 2559   3.573   2.011   3.508
 1363W        W 2560   7.941   6.739   7.309
 1364W        W 2561   5.642   1.206   5.954
 1365W        W 2562   5.034   1.272   4.762
 1366W        W 2563   0.590   4.329   2.097
 1367W        W 2564   1.725   4.283   6.180
 1368W        W 2565   4.089   2.308   3.037
 1369W        W 2566   3.429   0.065   4.510
 1370W        W 2567   6.949   0.172   3.822
 1371W        W 2568   1.038   3.576   7.433
 1372W        W 2569   2.652   5.645   1.216
 1373W        W 2570   6.126   6.337   3.747
 1374W        W 2571   6.615   3.402   5.975
 1375W        W 2572   0.093   1.727   6.402
 1376W        W 2573   3.957   7.669   5.072
 1377W        W 2574   1.754   2.981   6.474
 1378W        W 2575   6.848   5.103   3.094
 1379W        W 2576   5.235   1.803   2.756
 1380W        W 2577   7.130   4.711   6.527
 1381W        W 2578   5.257   2.207   6.949
 1382W        W 2579   1.963   6.059   5.524
 1383W        W 2580   0.439   1.282   2.433
 1384W        W 2581   0.659   7.191   4.113
 1385W        W 2582   6.040   4.928   4.276
 1386W        W 2583   7.192   2.343   1.678
 1387W        W 2584   1.077   4.228   4.581
 1388W        W 2585   5.578   0.261   5.410
 1389W        W 2586   2.568   4.130   3.144
 1390W        W 2587   6.233   7.846   2.339
 1391W        W 2588   3.342   0.838   6.064
 1392W        W 2589   5.847   3.300   0.705
 1393W        W 2590   1.049   2.854   5.481
 1394W        W 2591   3.880   1.009   3.305
 1395W        W 2592   5.279   3.992   3.233
 1396W        W 2593   1.204   1.112   5.672
 1397W        W 2594   4.636   3.366   0.664
 1398W        W 2595   6.972   4.184   3.358
 1399W        W 2596   1.757   5.758   2.386
 1400W        W 2597   4.545   0.159   7.952
 1401W        W 2598   2.785   0.380   0.604
 1402W        W 2599   4.467   7.370   2.231
 1403W        W 2600   5.881   6.534   6.110
 1404W        W 2601   4.576   5.573   6.286
 1405W        W 2602   4.415   1.467   7.041
 1406W        W 2603   7.622   2.966   7.407
 1407W        W 2604   0.696   0.010   4.939
 1408W        W 2605   2.370   4.307   4.069
 1409W        W 2606   3.922   7.605   7.838
 1410W        W 2607   2.765   6.116   0.203
 1411W        W 2608   6.542   2.731   2.102
 1412W        W 2609   5.764   6.814   0.460
 1413W        W 2610   0.607   5.107   5.786
 1414W        W 2611   4.776   6.357   6.772
 1415W        W 2612   5.685   5.510   5.672
 1416W        W 2613   7.466   0.457   7.432
 1417W        W 2614   2.976   2.602   0.038
 1418W        W 2615   5.096   0.342   3.456
 1419W        W 2616   7.414   3.625   6.082
 1420W        W 2617   7.444   6.258   6.994
 1421W        W 2618   0.981   1.980   6.889
 1422W        W 2619   1.698   6.040   0.745
 1423W        W 2620   4.291   7.260   5.202
 1424W        W 2621   1.832   1.599   6.802
 1425W        W 2622   1.571   0.159   3.661
 1426W        W 2623   2.094   1.166   2.820
 1427W        W 2624   1.978   2.923   3.614
 1428W        W 2625   4.646   5.944   7.121
 1429W        W 2626   2.184   7.558   7.565
 1430W        W 2627   7.515   7.059   1.667
 1431W        W 2628   7.772   5.007   2.868
 1432W        W 2629   0.832   7.449   1.820
 1433W        W 2630   6.322   5.740   3.160
 1434W        W 2631   2.543   3.552   1.080
 1435W        W 2632   1.489   3.457   3.598
 1436W        W 2633   7.830   0.337   1.667
 1437W        W 2634   4.464   7.476   4.318
 1438W        W 2635   7.209   1.608   1.007
 1439W        W 2636   7.684   3.770   1.542
 1440W        W 2637   1.791   1.401   2.178
 1441W        W 2638   7.616   1.182   4.268
 1442W        W 2639   4.021   1.985   0.088
 1443W        W 2640   4.175   5.704   2.109
 1444W        W 2641   3.777   5.363   5.362
 1445W        W 2642   0.557   0.767   0.837
 1446W        W 2643   7.396   2.144   2.285
 1447W        W 2644   2.719   4.465   6.255
 1448W        W 2645   3.286   1.367   7.418
 1449W        W 2646   6.292   1.655   3.345
 1450W        W 2647   0.073   7.311   2.727
 1451W        W 2648   4.249   5.123   3.707
 1452W        W 2649   6.108   0.476   2.685
 1453W        W 2650   5.746   0.169   2.180
 1454W        W 2651   0.618   1.067   6.389
 1455W        W 2652   6.417   4.384   7.015
 1456W        W 2653   3.098   0.309   1.107
 1457W        W 2654   5.510   5.288   6.214
 1458W        W 2655   0.645   6.649   2.890
 1459W        W 2656   0.532   6.204   3.129
 1460W        W 2657   2.766   0.317   2.755
 1461W        W 2658   3.502   4.934   4.472
 1462W        W 2659   3.043   0.357   7.017
 1463W        W 2660   3.017   4.769   2.442
 1464W        W 2661   6.702   1.587   1.012
 1465W        W 2662   7.654   7.606   4.340
 1466W        W 2663   4.595   0.268   3.168
 1467W        W 2664   2.018   2.511   2.460
 1468W        W 2665   5.339   2.579   3.728
 1469W        W 2666   2.529   5.449   6.412
 1470W        W 2667   3.428   5.126   6.378
 1471W        W 2668   7.373   3.802   3.851
 1472W        W 2669   3.151   2.240   0.425
 1473W        W 2670   2.520   0.357   6.877
 1474W        W 2671   7.254   2.918   6.584
 1475W        W 2672   2.553   1.263   1.173
 1476W        W 2673   7.116   5.438   7.039
 1477W        W 2674   1.996   0.039   3.378
 1478W        W 2675   7.485   2.874   6.173
 1479W        W 2676   7.608   5.585   6.318
 1480W        W 2677   0.213   6.878   1.741
 1481W        W 2678   6.753   7.597   4.938
 1482W        W 2679   3.436   4.257   2.072
 1483W        W 2680   1.189   5.528   3.936
 1484W        W 2681   3.193   1.760   0.687
 1485W        W 2682   3.407   4.553   0.697
 1486W        W 2683   4.816   2.432   7.080
 1487W        W 2684   0.464   4.182   5.391
 1488W        W 2685   5.085   2.746   4.577
 1489W        W 2686   6.311   1.793   6.945
 1490W        W 2687   4.427   7.403   7.943
 1491W        W 2688   7.248   0.490   4.654
 1492W        W 2689   0.163   4.900   4.767
 1493W        W 2690   5.150   3.670   7.039
 1494W        W 2691   1.789   5.157   2.912
 1495W        W 2692   7.661   4.491   5.009
 1496W        W 2693   6.670   2.988   3.101
 1497W        W 2694   3.016   3.384   3.020
 1498W        W 2695   5.513   6.056   4.835
 1499W        W 2696   5.463   1.985   5.925
 1500W        W 2697   0.329   1.328   6.700
 1501W        W 2698   1.992   2.594   6.242
 1502W        W 2699   0.177   2.228   6.485
 1503W        W 2700   4.955   7.737   2.542
 1504W        W 2701   4.453   4.650   6.316
 1505W        W 2702   3.162   2.630   5.248
 1506W        W 2703   6.318   4.527   1.141
 1507W        W 2704   2.795   3.487   5.861
 1508W        W 2705   5.505   4.971   7.689
 1509W        W 2706   5.537   4.004   1.517
 1510W        W 2707   6.639   4.827   0.731
 1511W        W 2708   1.803   5.346   5.932
 1512W        W 2709   1.989   5.266   3.367
 1513W        W 2710   4.133   0.137   6.210
 1514W        W 2711   1.441   0.409   2.745
 1515W        W 2712   6.397   3.710   5.643
 1516W        W 2713   7.056   0.768   6.982
 1517W        W 2714   5.358   4.297   3.635
 1518W        W 2715   7.061   0.525   2.126
 1519W        W 2716   0.576   4.406   7.164
 1520W        W 2717   1.734   0.332   7.420
 1521W        W 2718   2.660   5.098   7.919
 1522W        W 2719   1.878   5.033   5.482
 1523W        W 2720   5.772   2.401   0.733
 1524W        W 2721   2.671   1.960   6.346
 1525W        W 2722   1.765   6.611   2.013
 1526W        W 2723   5.814   5.830   2.740
 1527W        W 2724   0.692   1.024   3.893
 1528W        W 2725   7.767   7.646   2.235
 1529W        W 2726   4.076   4.360   3.129
 1530W        W 2727   3.205   0.791   3.265
 1531W        W 2728   5.526   5.410   6.960
 1532W        W 2729   1.990   2.427   0.388
 1533W        W 2730   2.868   5.553   4.098
 1534W        W 2731   5.858   2.253   5.700
 1535W        W 2732   0.274   4.709   0.782
 1536W        W 2733   2.491   4.948   4.695
 1537W        W 2734   2.116   7.090   7.854
 1538W        W 2735   2.000   6.580   3.082
 1539W        W 2736   6.531   4.885   2.258
 1540W        W 2737   3.216   3.324   6.769
 1541W        W 2738   2.016   0.649   2.763
 1542W        W 2739   2.458   2.247   5.464
 1543W        W 2740   0.776   7.026   3.448
 1544W        W 2741   2.647   5.507   6.980
 1545W        W 2742   5.881   5.785   2.260
 1546W        W 2743   2.657   2.848   4.251
 1547W        W 2744   3.516   7.607   4.272
 1548W        W 2745   3.424   6.925   3.613
 1549W        W 2746   0.483   0.297   6.555
 1550W        W 2747   1.912   1.926   2.155
 1551W        W 2748   3.943   1.522   7.879
 1552W        W 2749   4.429   4.711   7.357
 1553W        W 2750   1.396   6.712   7.553
 1554W        W 2751   4.099   3.364   5.994
 1555W        W 2752   7.494   1.191   0.984
 1556W        W 2753   3.853   4.818   0.070
 1557W        W 2754   5.960   1.198   4.977
 1558W        W 2755   5.166   3.297   2.554
 1559W        W 2756   6.900   2.318   0.600
 1560W        W 2757   1.111   2.459   6.875
 1561W        W 2758   0.302   0.807   6.721
 1562W        W 2759   4.177   4.628   3.946
 1563W        W 2760   7.073   4.583   3.715
 1564W        W 2761   7.179   3.464   7.307
 1565W        W 2762   4.388   4.202   7.528
 1566W        W 2763   1.875   5.670   2.863
 1567W        W 2764   1.249   4.190   0.839
 1568W        W 2765   4.097   2.644   2.627
 1569W        W 2766   4.638   6.353   5.644
 1570W        W 2767   3.580   3.200   1.064
 1571W        W 2768   2.526   3.282   7.359
 1572W        W 2769   3.843   0.785   5.595
 1573W        W 2770   1.962   0.517   3.593
 1574W        W 2771   7.330   6.644   5.037
 1575W        W 2772   2.521   4.185   0.344
 1576W        W 2773   3.114   6.868   0.871
 1577W        W 2774   1.413   2.944   7.000
 1578W        W 2775   5.574   2.616   4.746
 1579W        W 2776   3.474   0.799   4.361
 1580W        W 2777   2.069   7.374   4.854
 1581W        W 2778   0.448   0.638   6.210
 1582W        W 2779   2.584   5.970   4.201
 1583W        W 2780   0.985   4.245   5.589
 1584W        W 2781   7.237   3.157   3.177
 1585W        W 2782   1.110   1.259   3.675
 1586W        W 2783   5.261   0.686   1.193
 1587W        W 2784   4.119   2.395   5.632
 1588W        W 2785   5.874   0.817   3.559
 1589W        W 2786   1.037   0.452   5.780
 1590W        W 2787   6.299   6.001   5.856
 1591W        W 2788   1.074   0.291   3.689
 1592W        W 2789   6.143   0.541   2.088
 1593W        W 2790   5.531   6.685   1.928
 1594W        W 2791   2.042   2.409   3.534
 1595W        W 2792   4.395   2.448   3.909
 1596W        W 2793   2.566   1.447   6.183
 1597W        W 2794   4.419   0.971   7.169
 1598W        W 2795   0.638   0.525   7.210
 1599W        W 2796   5.473   6.391   4.374
 1600W        W 2797   7.386   3.899   0.274
 1601W        W 2798   3.674   5.952   4.055
 1602W        W 2799   1.230   7.334   0.843
 1603W        W 2800   2.223   1.625   6.504
 1604W        W 2801   6.641   4.362   0.719
 1605W        W 2802   3.288   3.889   5.962
 1606W        W 2803   7.706   2.435   2.812
 1607W        W 2804   2.443   6.161   5.267
 1608W        W 2805   3.406   2.905   0.505
 1609W        W 2806   7.425   4.879   2.271
 1610W        W 2807   4.133   5.179   7.571
 1611W        W 2808   2.783   3.019   2.816
 1612W        W 2809   1.930   7.493   5.355
 1613W        W 2810   1.720   5.963   4.000
 1614W        W 2811   6.384   7.461   3.976
 1615W        W 2812   0.612   2.337   0.724
 1616W        W 2813   4.255   5.130   6.119
 1617W        W 2814   6.893   2.676   4.015
 1618W        W 2815   7.152   4.350   2.928
 1619W        W 2816   7.917   1.335   0.567
 1620W        W 2817   0.589   3.749   2.325
 1621W        W 2818   5.467   4.137   5.269
 1622W        W 2819   7.769   0.007   0.609
 1623W        W 2820   4.320   7.270   0.451
 1624W        W 2821   5.418   6.375   7.265
 1625W        W 2822   4.813   4.765   3.028
 1626W        W 2823   2.061   6.437   0.850
 1627W        W 2824   0.153   2.682   0.156
 1628W        W 2825   2.775   4.943   2.837
 1629W        W 2826   6.124   0.950   6.361
 1630W        W 2827   3.916   2.169   2.571
 1631W        W 2828   4.917   4.577   6.107
 1632W        W 2829   5.090   2.202   1.444
 1633W        W 2830   4.726   6.268   3.282
 1634W        W 2831   2.015   3.447   4.292
 1635W        W 2832   0.942   0.045   7.397
 1636W        W 2833   1.862   7.796   7.231
 1637W        W 2834   4.214   6.426   0.818
 1638W        W 2835   0.938   2.908   6.753
 1639W        W 2836   3.070   3.944   5.142
 1640W        W 2837   4.512   0.027   1.725
 1641W        W 2838   0.766   6.490   4.750
 1642W        W 2839   6.610   2.008   7.665
 1643W        W 2840   5.943   7.490   2.121
 1644W        W 2841   3.714   6.869   0.295
 1645W        W 2842   4.883   0.308   0.446
 1646W        W 2843   2.179   4.201   5.958
 1647W        W 2844   4.270   4.141   6.190
 1648W        W 2845   2.951   1.450   3.834
 1649W        W 2846   1.573   0.384   4.582
 1650W        W 2847   1.293   4.122   1.702
 1651W        W 2848   1.215   3.061   5.914
 1652W        W 2849   0.454   0.381   2.065
 1653W        W 2850   2.170   4.913   3.719
 1654W        W 2851   6.632   3.002   3.596
 1655W        W 2852   5.205   3.388   0.588
 1656W        W 2853   4.047   6.348   3.892
 1657W        W 2854   4.296   3.258   4.496
 1658W        W 2855   5.036   3.868   1.023
 1659W        W 2856   3.318   1.371   1.550
 1660W        W 2857   2.112   6.221   4.236
 1661W        W 2858   3.852   3.025   1.763
 1662W        W 2859   6.383   1.554   7.511
 1663W        W 2860   3.671   7.465   4.715
 1664W        W 2861   4.329   4.651   0.978
 1665W        W 2862   0.715   6.990   4.646
 1666W        W 2863   4.883   4.704   7.157
 1667W        W 2864   6.255   2.020   4.540
 1668W        W 2865   0.548   2.462   1.569
 1669W        W 2866   4.487   5.047   1.235
 1670W        W 2867   2.172   6.763   0.433
 1671W        W 2868   2.230   5.879   0.403
 1672W        W 2869   0.988   3.514   5.086
 1673W        W 2870   2.072   5.509   5.415
 1674W        W 2871   4.080   4.237   6.683
 1675W        W 2872   6.735   0.824   0.649
 1676W        W 2873   4.665   1.165   0.297
 1677W        W 2874   0.621   6.282   2.585
 1678W        W 2875   4.929   5.654   6.654
 1679W        W 2876   0.290   6.139   6.042
 1680W        W 2877   6.005   7.506   5.724
 1681W        W 2878   3.982   4.589   2.126
 1682W        W 2879   5.580   7.423   4.392
 1683W        W 2880   5.927   2.244   2.715
 1684W        W 2881   5.787   1.949   5.289
 1685W        W 2882   7.447   6.249   5.807
 1686W        W 2883   7.803   0.754   4.114
 1687W        W 2884   4.717   4.169   0.270
 1688W        W 2885   0.612   7.069   7.615
 1689W        W 2886   2.352   5.459   0.670
 1690W        W 2887   1.368   7.756   1.100
 1691W        W 2888   4.551   5.998   4.611
 1692W        W 2889   0.932   1.536   7.806
 1693W        W 2890   1.355   7.960   7.427
 1694W        W 2891   5.969   2.937   7.246
 1695W        W 2892   3.856   3.053   6.327
 1696W        W 2893   2.370   6.774   1.299
 1697W        W 2894   4.830   1.667   0.222
 1698W        W 2895   7.390   6.099   1.076
 1699W        W 2896   3.657   1.297   6.978
 1700W        W 2897   4.447   4.458   4.385
 1701W        W 2898   6.983   6.902   2.143
 1702W        W 2899   3.032   2.300   0.911
 1703W        W 2900   3.076   6.488   3.479
 1704W        W 2901   3.312   3.741   7.089
 1705W        W 2902   3.918   2.826   0.213
 1706W        W 2903   4.656   6.791   7.052
 1707W        W 2904   3.806   6.906   2.221
 1708W        W 2905   7.464   4.337   1.413
 1709W        W 2906   6.781   5.229   7.787
 1710W        W 2907   0.824   4.641   7.502
 1711W        W 2908   0.574   4.829   6.865
 1712W        W 2909   1.505   1.445   5.910
 1713W        W 2910   2.334   4.612   3.045
 1714W        W 2911   6.421   3.439   1.378
 1715W        W 2912   5.718   6.797   7.143
 1716W        W 2913   4.141   2.110   4.654
 1717W        W 2914   7.337   2.077   0.571
 1718W        W 2915   7.699   6.299   0.657
 1719W        W 2916   5.039   2.898   5.793
 1720W        W 2917   6.321   3.321   0.828
 1721W        W 2918   4.276   5.978   5.638
 1722W        W 2919   1.000   2.528   3.516
 1723W        W 2920   5.976   1.385   1.665
 1724W        W 2921   2.449   1.452   6.961
 1725W        W 2922   7.434   7.999   7.757
 1726W        W 2923   3.286   7.186   5.262
 1727W        W 2924   3.228   1.384   4.333
 1728W        W 2925   1.714   7.015   3.110
 1729W        W 2926   4.507   1.992   3.671
 1730W        W 2927   4.557   0.474   6.112
 1731W        W 2928   6.096   7.198   1.694
 1732W        W 2929   3.501   5.123   1.203
 1733W        W 2930   0.218   3.341   0.548
 1734W        W 2931   6.651   5.012   3.663
 1735W        W 2932   3.839   5.018   1.902
 1736W        W 2933   6.737   1.683   5.535
 1737W        W 2934   2.236   1.807   3.504
 1738W        W 2935   3.303   4.917   6.917
 1739W        W 2936   6.465   4.263   1.682
 1740W        W 2937   4.609   3.604   7.491
 1741W        W 2938   0.145   7.014   7.565
 1742W        W 2939   6.803   1.985   6.028
 1743W        W 2940   5.795   7.642   5.286
 1744W        W 2941   6.118   6.671   2.613
 1745W        W 2942   1.076   6.421   0.699
 1746W        W 2943   4.283   4.278   0.635
 1747W        W 2944   3.646   5.627   4.519
 1748W        W 2945   0.041   3.567   4.054
 1749W        W 2946   7.584   1.423   3.453
 1750W        W 2947   5.750   0.903   2.899
 1751W        W 2948   5.680   3.808   3.481
 1752W        W 2949   2.062   0.753   5.628
 1753W        W 2950   6.958   3.903   5.267
 1754W        W 2951   1.268   3.395   4.717
 1755W        W 2952   4.620   4.195   1.225
 1756W        W 2953   0.701   2.712   7.109
 1757W        W 2954   0.211   6.146   2.027
 1758W        W 2955   4.886   3.186   5.348
 1759W        W 2956   3.319   6.605   1.799
 1760W        W 2957   0.096   0.840   5.805
 1761W        W 2958   3.081   6.574   6.422
 1762W        W 2959   0.478   5.827   0.451
 1763W        W 2960   5.625   4.828   4.497
 1764W        W 2961   1.130   4.680   3.813
 1765W        W 2962   5.034   5.779   4.941
 1766W        W 2963   7.385   6.463   0.108
 1767W        W 2964   4.080   1.861   5.925
 1768W        W 2965   0.039   1.014   4.501
 1769W        W 2966   6.354   2.104   5.081
 1770W        W 2967   1.212   4.380   1.303
 1771W        W 2968   6.844   4.263   6.637
 1772W        W 2969   0.263   5.949   2.745
 1773W        W 2970   4.371   5.161   7.115
 1774W        W 2971   2.051   0.698   1.134
 1775W        W 2972   5.958   1.234   0.640
 1776W        W 2973   7.117   4.665   0.600
 1777W        W 2974   5.474   0.387   4.764
 1778W        W 2975   7.461   4.369   3.499
 1779W        W 2976   5.412   4.293   0.654
 1780W        W 2977   5.084   2.527   6.522
 1781W        W 2978   2.245   1.882   6.034
 1782W        W 2979   1.216   2.837   3.160
 1783W        W 2980   3.278   0.957   6.817
 1784W        W 2981   7.207   7.464   0.255
 1785W        W 2982   5.989   2.246   0.315
 1786W        W 2983   7.474   4.896   3.837
 1787W        W 2984   0.162   5.335   3.125
 1788W        W 2985   0.639   0.516   3.984
 1789W        W 2986   5.772   5.408   1.892
 1790W        W 2987   1.679   3.131   3.960
 1791W        W 2988   4.232   7.719   1.172
 1792W        W 2989   0.231   0.396   6.987
 1793W        W 2990   4.848   2.928   6.281
 1794W        W 2991   1.862   5.139   2.330
 1795W        W 2992   5.347   1.805   7.285
 1796W        W 2993   5.484   5.382   1.431
 1797W        W 2994   4.147   1.825   2.859
 1798W        W 2995   2.121   5.639   6.736
 1799W        W 2996   0.173   6.455   2.522
 1800W        W 2997   5.135   4.834   0.711
 1801W        W 2998   3.278   2.746   0.980
 1802W        W 2999   0.910   2.543   2.820
 1803W        W 3000   7.288   0.628   2.954
 1804W        W 3001   5.340   0.979   6.624
 1805W        W 3002   6.087   0.257   5.507
 1806W        W 3003   6.699   5.577   6.068
 1807W        W 3004   7.590   4.065   6.029
 1808W        W 3005   7.778   2.212   3.494
 1809W        W 3006   2.633   6.592   6.671
 1810W        W 3007   7.014   0.758   5.575
 1811W        W 3008   3.049   3.194   0.397
 1812W        W 3009   7.161   2.308   6.846
 1813W        W 3010   1.516   6.114   0.282
 1814W        W 3011   2.008   2.416   2.989
 1815W        W 3012   6.247   5.436   5.905
 1816W        W 3013   0.508   3.635   5.074
 1817W        W 3014   6.622   0.755   5.958
 1818W        W 3015   1.246   4.714   4.776
 1819W        W 3016   2.090   3.210   2.385
 1820W        W 3017   3.004   6.184   6.099
 1821W        W 3018   1.817   4.992   1.822
 1822W        W 3019   4.865   2.099   6.601
 1823W        W 3020   5.454   0.482   0.221
 1824W        W 3021   2.298   0.101   5.777
 1825W        W 3022   4.674   1.634   4.049
 1826W        W 3023   4.324   1.275   2.658
 1827W        W 3024   6.648   5.476   3.956
 1828W        W 3025   3.348   5.392   4.159
 1829W        W 3026   3.873   3.403   4.280
 1830W        W 3027   0.761   5.834   1.365
 1831W        W 3028   2.897   5.189   1.945
 1832W        W 3029   0.252   6.321   5.505
 1833W        W 3030   0.999   1.575   1.240
 1834W        W 3031   2.669   5.857   0.711
 1835W        W 3032   2.109   6.761   4.220
 1836W        W 3033   1.855   0.008   4.644
 1837W        W 3034   1.808   0.282   6.695
 1838W        W 3035   4.581   3.576   0.203
 1839W        W 3036   1.275   3.983   5.953
 1840W        W 3037   7.166   7.340   7.073
 1841W        W 3038   4.955   7.670   5.810
 1842W        W 3039   3.845   4.224   0.864
 1843W        W 3040   4.206   1.064   4.467
 1844W        W 3041   3.553   7.069   3.098
 1845W        W 3042   0.902   5.098   5.379
 1846W        W 3043   0.218   5.814   7.459
 1847W        W 3044   6.828   2.538   2.613
 1848W        W 3045   7.585   2.101   4.553
 1849W        W 3046   0.652   1.996   3.002
 1850W        W 3047   3.335   7.377   3.873
 1851W        W 3048   1.988   3.482   3.790
 1852W        W 3049   6.788   4.567   1.136
 1853W        W 3050   6.986   1.091   7.327
 1854W        W 3051   6.021   2.005   3.662
 1855W        W 3052   3.232   3.637   1.184
 1856W        W 3053   7.208   6.114   2.773
 1857W        W 3054   2.721   6.087   2.596
 1858W        W 3055   2.496   3.248   1.568
 1859W        W 3056   5.125   4.333   6.740
 1860W        W 3057   3.246   3.966   4.592
 1861W        W 3058   4.933   3.135   0.230
 1862W        W 3059   5.919   0.474   3.160
 1863W        W 3060   2.226   5.983   3.793
 1864W        W 3061   3.987   5.360   6.617
 1865W        W 3062   6.694   0.054   2.632
 1866W        W 3063   4.480   4.619   1.488
 1867W        W 3064   3.568   5.426   3.695
 1868W        W 3065   1.183   2.925   4.479
 1869W        W 3066   5.804   2.326   4.417
 1870W        W 3067   2.377   6.324   2.837
 1871W        W 3068   2.756   1.468   7.538
 1872W        W 3069   1.365   5.575   2.878
 1873W        W 3070   5.550   0.934   0.903
 1874W        W 3071   2.230   4.743   2.211
 1875W        W 3072   1.994   3.242   5.618
 1876W        W 3073   7.504   0.718   2.275
 1877W        W 3074   4.484   4.262   1.770
 1878W        W 3075   2.129   7.321   4.267
 1879W        W 3076   1.609   5.640   1.037
 1880W        W 3077   6.337   6.748   3.548
 1881W        W 3078   4.734   1.451   7.433
 1882W        W 3079   7.606   6.997   3.671
 1883W        W 3080   5.458   7.250   7.553
 1884W        W 3081   5.494   0.598   4.215
 1885W        W 3082   4.716   6.765   3.543
 1886W        W 3083   1.042   4.241   4.080
 1887W        W 3084   7.744   3.892   3.563
 1888W        W 3085   0.779   0.999   0.453
 1889W        W 3086   5.931   6.818   6.623
 1890W        W 3087   1.308   3.509   7.007
 1891W        W 3088   1.600   0.992   1.243
 1892W        W 3089   1.279   7.200   7.412
 1893W        W 3090   1.781   2.625   1.639
 1894W        W 3091   2.386   7.083   7.388
 1895W        W 3092   3.090   7.656   1.864
 1896W        W 3093   1.947   4.569   5.697
 1897W        W 3094   4.389   6.038   6.102
 1898W        W 3095   1.669   5.554   4.272
 1899W        W 3096   1.354   1.459   6.841
 1900W        W 3097   0.538   5.265   0.141
 1901W        W 3098   6.805   6.437   2.152
 1902W        W 3099   3.837   6.798   3.835
 1903W        W 3100   4.247   6.437   7.319
 1904W        W 3101   7.244   0.813   4.263
 1905W        W 3102   5.303   5.041   3.127
 1906W        W 3103   2.739   3.922   6.057
 1907W        W 3104   1.110   3.821   1.276
 1908W        W 3105   1.421   1.628   3.957
 1909W        W 3106   0.104   6.058   0.834
 1910W        W 3107   5.507   5.082   5.500
 1911W        W 3108   3.947   3.026   4.696
 1912W        W 3109   5.989   6.834   2.167
 1913W        W 3110   6.769   6.851   5.832
 1914W        W 3111   6.058   0.478   4.867
 1915W        W 3112   4.480   1.822   4.931
 1916W        W 3113   4.725   0.042   3.589
 1917W        W 3114   7.475   1.578   0.488
 1918W        W 3115   3.558   2.223   5.276
 1919W        W 3116   1.804   0.351   5.506
 1920W        W 3117   1.537   7.087   1.849
 1921W        W 3118   6.088   4.661   1.547
 1922W        W 3119   5.630   6.787   1.121
 1923W        W 3120   4.373   0.793   0.964
 1924W        W 3121   4.092   1.777   3.399
 1925W        W 3122   0.644   2.928   1.359
 1926W        W 3123   4.664   1.779   1.867
 1927W        W 3124   6.258   2.288   0.773
 1928W        W 3125   7.704   1.951   6.328
 1929W        W 3126   5.886   0.027   5.063
 1930W        W 3127   0.372   2.585   6.091
 1931W        W 3128   0.018   7.813   7.121
 1932W        W 3129   7.154   1.682   3.069
 1933W        W 3130   1.773   5.616   6.378
 1934W        W 3131   1.520   5.386   2.095
 1935W        W 3132   1.019   1.694   5.050
 1936W        W 3133   2.013   0.075   6.290
 1937W        W 3134   7.083   1.412   3.457
 1938W        W 3135   2.583   0.053   0.162
 1939W        W 3136   7.267   2.039   4.888
 1940W        W 3137   7.338   6.605   1.920
 1941W        W 3138   5.544   1.009   4.693
 1942W        W 3139   5.860   1.826   3.177
 1943W        W 3140   4.464   2.025   0.416
 1944W        W 3141   1.119   1.322   1.653
 1945W        W 3142   6.616   3.000   2.510
 1946W        W 3143   1.498   6.300   7.258
 1947W        W 3144   7.880   4.695   2.447
 1948W        W 3145   1.089   0.951   6.147
 1949W        W 3146   7.939   7.609   1.269
 1950W        W 3147   7.814   6.561   6.840
 1951W        W 3148   4.960   4.899   5.403
 1952W        W 3149   3.399   1.465   7.873
 1953W        W 3150   2.230   5.745   7.698
 1954W        W 3151   7.928   7.158   1.884
 1955W        W 3152   3.392   6.196   5.279
 1956W        W 3153   2.781   0.949   5.994
 1957W        W 3154   6.084   7.280   4.401
 1958W        W 3155   6.257   2.546   7.049
 1959W        W 3156   4.510   0.641   0.463
 1960W        W 3157   2.786   2.278   2.540
 1961W        W 3158   3.359   7.246   2.620
 1962W        W 3159   1.914   4.505   0.423
 1963W        W 3160   4.808   0.959   5.238
 1964W        W 3161   3.953   4.801   4.660
 1965W        W 3162   3.942   5.517   7.113
 1966W        W 3163   2.064   5.285   4.671
 1967W        W 3164   0.980   5.934   6.746
 1968W        W 3165   2.474   4.554   3.569
 1969W        W 3166   7.683   7.643   1.674
 1970W        W 3167   4.058   2.877   5.157
 1971W        W 3168   0.227   0.752   3.516
 1972W        W 3169   2.263   0.605   6.523
 1973W        W 3170   0.232   0.842   4.000
 1974W        W 3171   6.693   0.490   2.870
 1975W        W 3172   1.815   1.539   3.692
 1976W        W 3173   2.143   5.431   0.147
 1977W        W 3174   6.948   5.099   0.420
 1978W        W 3175   4.020   3.477   7.739
 1979W        W 3176   2.827   0.854   6.900
 1980W        W 3177   4.912   7.167   6.819
 1981W        W 3178   7.252   3.724   3.317
 1982W        W 3179   0.162   1.208   6.194
 1983W        W 3180   4.949   4.012   3.649
 1984W        W 3181   0.939   2.608   1.054
 1985W        W 3182   6.930   3.290   1.548
 1986W        W 3183   5.167   2.924   7.698
 1987W        W 3184   6.875   2.443   7.941
 1988W        W 3185   2.224   7.372   2.325
 1989W        W 3186   1.354   6.380   3.694
 1990W        W 3187   0.232   0.326   0.117
 1991W        W 3188   6.595   7.303   4.501
 1992W        W 3189   7.065   3.438   6.826
 1993W        W 3190   2.483   2.831   2.485
 1994W        W 3191   4.043   3.532   1.679
 1995W        W 3192   7.006   7.441   1.834
 1996W        W 3193   2.497   5.128   0.319
 1997W        W 3194   5.769   2.356   6.202
 1998W        W 3195   5.229   1.415   3.787
 1999W        W 3196   7.013   5.180   2.507
 2000W        W 3197   2.883   2.815   3.299
 2001W        W 3198   4.945   3.942   1.648
 2002W        W 3199   2.329   1.970   4.965
 2003W        W 3200   1.610   4.718   1.373
 2004W        W 3201   1.421   4.692   0.411
 2005W        W 3202   0.714   2.734   4.520
 2006W        W 3203   0.744   3.989   0.786
 2007W        W 3204   3.964   0.095   7.596
 2008W        W 3205   1.916   6.162   6.509
 2009W        W 3206   0.810   3.740   4.701
 2010W        W 3207   3.886   2.596   6.532
 2011W        W 3208   4.173   0.688   4.726
 2012W        W 3209   6.142   3.025   2.139
 2013W        W 3210   7.896   6.912   3.206
 2014W        W 3211   6.887   0.308   4.326
 2015W        W 3212   7.839   1.862   0.694
 2016W        W 3213   0.456   6.649   3.371
 2017W        W 3214   6.847   7.061   6.775
 2018W        W 3215   6.100   5.880   4.204
 2019W        W 3216   5.428   4.338   6.311
 2020W        W 3217   0.696   2.593   5.201
 2021W        W 3218   4.785   7.683   3.005
 2022W        W 3219   3.725   7.776   2.289
 2023W        W 3220   3.485   1.510   4.750
 2024W        W 3221   6.052   5.610   7.202
 2025W        W 3222   5.622   2.695   7.608
 2026W        W 3223   5.561   2.458   2.033
 2027W        W 3224   0.203   4.385   2.512
 2028W        W 3225   7.213   2.023   6.405
 2029W        W 3226   0.897   2.437   1.927
 2030W        W 3227   6.744   5.944   5.570
 2031W        W 3228   3.267   7.841   2.957
 2032W        W 3229   5.191   4.403   4.922
 2033W        W 3230   4.155   3.388   0.822
 2034W        W 3231   1.011   4.268   3.553
 2035W        W 3232   4.041   0.098   2.881
 2036W        W 3233   1.931   5.643   1.890
 2037W        W 3234   5.361   5.747   4.392
 2038W        W 3235   5.443   6.904   6.586
 2039W        W 3236   5.150   4.302   1.191
 2040W        W 3237   2.904   0.136   3.613
 2041W        W 3238   7.346   5.819   4.287
 2042W        W 3239   3.982   0.049   1.331
 2043W        W 3240   0.950   7.602   7.897
 2044W        W 3241   4.747   2.482   2.916
 2045W        W 3242   7.028   7.809   1.031
 2046W        W 3243   5.490   1.311   1.813
 2047W        W 3244   1.715   3.751   2.946
 2048W        W 3245   1.969   0.800   7.492
 2049W        W 3246   4.339   5.586   4.381
 2050W        W 3247   5.755   4.057   4.010
 2051W        W 3248   3.614   5.681   6.101
 2052W        W 3249   6.375   0.152   3.029
 2053W        W 3250   5.124   7.519   0.590
 2054W        W 3251   0.631   2.561   6.552
 2055W        W 3252   0.904   0.203   6.894
 2056W        W 3253   6.977   2.464   1.216
 2057W        W 3254   4.050   4.918   1.443
 2058W        W 3255   1.003   7.335   3.802
 2059W        W 3256   6.036   4.268   4.576
 2060W        W 3257   7.041   7.097   7.540
 2061W        W 3258   0.184   4.545   7.415
 2062W        W 3259   2.768   0.619   3.835
 2063W        W 3260   2.150   0.807   5.092
 2064W        W 3261   0.665   0.563   4.547
 2065W        W 3262   1.060   6.492   1.365
 2066W        W 3263   5.555   7.621   7.290
 2067W        W 3264   3.691   5.193   2.841
 2068W        W 3265   6.516   0.704   5.207
 2069W        W 3266   7.109   0.781   0.947
 2070W        W 3267   7.685   3.752   0.675
 2071W        W 3268   0.872   0.546   1.706
 2072W        W 3269   7.572   0.771   0.087
 2073W        W 3270   3.516   5.082   0.621
 2074W        W 3271   5.756   2.698   0.226
 2075W        W 3272   6.722   6.583   0.658
 2076W        W 3273   6.558   6.847   0.143
 2077W        W 3274   0.443   7.415   7.157
 2078W        W 3275   1.786   7.842   0.605
 2079W        W 3276   1.247   2.453   5.273
 2080W        W 3277   7.451   7.665   4.820
 2081W        W 3278   1.708   0.644   5.006
 2082W        W 3279   2.120   6.678   2.532
 2083W        W 3280   5.907   4.243   7.130
 2084W        W 3281   6.799   7.672   5.475
 2085W        W 3282   4.331   5.525   0.889
 2086W        W 3283   2.074   1.051   0.724
 2087W        W 3284   7.492   0.128   5.132
 2088W        W 3285   5.073   7.462   4.394
 2089W        W 3286   6.704   5.388   4.885
 2090W        W 3287   6.397   7.263   3.116
 2091W        W 3288   5.363   1.553   5.650
 2092W        W 3289   5.110   0.027   7.707
 2093W        W 3290   5.725   3.801   4.419
 2094W        W 3291   4.911   1.143   4.080
 2095W        W 3292   3.717   5.742   5.093
 2096W        W 3293   4.792   2.132   4.068
 2097W        W 3294   7.123   6.255   4.071
 2098W        W 3295   1.492   0.154   5.789
 2099W        W 3296   0.327   2.872   7.453
 2100W        W 3297   2.571   4.005   2.386
 2101W        W 3298   1.078   7.080   2.087
 2102W        W 3299   0.613   0.002   0.178
 2103W        W 3300   6.944   3.436   0.304
 2104W        W 3301   6.871   3.910   6.229
 2105W        W 3302   2.419   6.278   0.534
 2106W        W 3303   2.330   4.349   0.738
 2107W        W 3304   3.010   2.529   6.167
 2108W        W 3305   1.520   3.293   3.084
 2109W        W 3306   2.634   6.972   4.249
 2110W        W 3307   7.788   2.970   6.560
 2111W        W 3308   4.629   6.282   1.933
 2112W        W 3309   4.204   0.818   0.112
 2113W        W 3310   6.707   0.517   4.802
 2114W        W 3311   4.422   0.979   3.282
 2115W        W 3312   4.621   4.225   5.770
 2116W        W 3313   1.565   6.430   4.329
 2117W        W 3314   5.080   6.180   0.174
 2118W        W 3315   1.136   2.339   1.479
 2119W        W 3316   4.916   3.628   2.192
 2120W        W 3317   4.574   7.926   4.492
 2121W        W 3318   3.291   6.397   4.633
 2122W        W 3319   6.050   6.236   2.412
 2123W        W 3320   3.663   7.116   1.159
 2124W        W 3321   0.132   4.937   6.495
 2125W        W 3322   1.314   4.224   6.464
 2126W        W 3323   5.599   6.659   2.415
 2127W        W 3324   7.719   2.776   5.212
 2128W        W 3325   6.565   1.234   0.507
 2129W        W 3326   6.858   0.999   4.632
 2130W        W 3327   6.632   4.112   7.472
 2131W        W 3328   4.568   6.102   7.586
 2132W        W 3329   6.335   5.825   4.635
 2133W        W 3330   4.731   1.141   2.898
 2134W        W 3331   1.793   7.700   4.061
 2135W        W 3332   0.518   0.560   5.704
 2136W        W 3333   3.605   6.627   0.859
 2137W        W 3334   7.566   3.554   1.996
 2138W        W 3335   5.144   0.091   0.880
 2139W        W 3336   5.644   4.654   5.854
 2140W        W 3337   6.440   5.876   3.756
 2141W        W 3338   7.455   4.821   1.507
 2142W        W 3339   7.054   1.237   0.668
 2143W        W 3340   3.747   0.504   7.963
 2144W        W 3341   0.305   2.608   4.757
 2145W        W 3342   3.042   6.882   7.897
 2146W        W 3343   4.836   0.914   2.460
 2147W        W 3344   4.485   1.081   3.947
 2148W        W 3345   7.461   0.564   5.467
 2149W        W 3346   1.196   2.100   3.814
 2150W        W 3347   4.115   3.401   3.527
 2151W        W 3348   4.010   0.363   7.172
 2152W        W 3349   2.665   1.281   2.603
 2153W        W 3350   6.451   7.251   5.908
 2154W        W 3351   4.643   2.299   1.643
 2155W        W 3352   5.734   6.775   3.586
 2156W        W 3353   3.903   3.805   0.033
 2157W        W 3354   1.245   1.892   7.627
 2158W        W 3355   1.369   0.912   4.711
 2159W        W 3356   3.060   7.139   1.803
 2160W        W 3357   0.136   7.306   4.068
 2161W        W 3358   7.712   2.916   1.059
 2162W        W 3359   3.713   3.025   7.632
 2163W        W 3360   4.830   5.991   4.145
 2164W        W 3361   2.016   3.438   6.221
 2165W        W 3362   6.619   6.289   4.656
 2166W        W 3363   6.605   0.380   5.674
 2167W        W 3364   1.946   6.233   2.305
 2168W        W 3365   7.197   7.111   5.707
 2169W        W 3366   3.845   7.229   3.597
 2170W        W 3367   1.483   2.462   2.911
 2171W        W 3368   7.127   5.552   6.250
 2172W        W 3369   6.832   3.459   3.281
 2173W        W 3370   7.644   1.662   4.360
 2174W        W 3371   2.259   4.979   2.707
 2175W        W 3372   1.927   5.742   3.512
 2176W        W 3373   6.951   5.347   4.430
 2177W        W 3374   4.527   7.290   3.814
 2178W        W 3375   4.809   7.388   6.248
 2179W        W 3376   1.508   0.918   0.706
 2180W        W 3377   2.419   6.193   7.567
 2181W        W 3378   1.471   1.984   5.645
 2182W        W 3379   6.239   7.153   2.653
 2183W        W 3380   6.896   5.240   6.613
 2184W        W 3381   0.248   6.419   4.520
 2185W        W 3382   5.987   6.706   4.450
 2186W        W 3383   6.414   5.671   0.829
 2187W        W 3384   4.150   6.563   3.433
 2188W        W 3385   1.709   3.452   2.051
 2189W        W 3386   5.027   6.128   3.666
 2190W        W 3387   1.676   0.131   1.333
 2191W        W 3388   6.952   7.493   2.838
 2192W        W 3389   6.462   3.965   1.228
 2193W        W 3390   1.542   2.613   4.929
 2194W        W 3391   6.478   7.410   2.230
 2195W        W 3392   2.854   6.739   5.971
 2196W        W 3393   4.171   7.735   0.390
 2197W        W 3394   6.433   1.727   2.370
 2198W        W 3395   3.951   3.773   3.846
 2199W        W 3396   3.476   6.216   6.247
 2200W        W 3397   4.144   1.086   0.563
 2201W        W 3398   4.231   3.468   6.724
 2202W        W 3399   7.483   5.725   2.533
 2203W        W 3400   0.953   1.296   4.738
 2204W        W 3401   4.059   6.338   7.776
 2205W        W 3402   6.695   3.304   5.453
 2206W        W 3403   4.039   0.591   4.170
 2207W        W 3404   2.926   2.115   7.123
 2208W        W 3405   2.477   6.826   2.954
 2209W        W 3406   5.555   3.660   3.024
 2210W        W 3407   2.376   4.450   5.033
 2211W        W 3408   2.247   4.159   6.946
 2212W        W 3409   5.390   3.030   1.382
 2213W        W 3410   2.685   5.626   4.663
 2214W        W 3411   7.443   7.093   3.193
 2215W        W 3412   5.739   3.897   4.912
 2216W        W 3413   1.410   4.859   2.240
 2217W        W 3414   4.997   3.088   4.195
 2218W        W 3415   2.423   0.289   3.616
 2219W        W 3416   1.099   2.567   4.093
 2220W        W 3417   1.967   3.293   3.298
 2221W        W 3418   1.714   3.865   5.086
 2222W        W 3419   6.123   4.246   6.524
 2223W        W 3420   5.251   3.082   4.908
 2224W        W 3421   5.037   5.659   3.284
 2225W        W 3422   3.815   5.509   3.243
 2226W        W 3423   1.780   2.873   2.126
 2227W        W 3424   3.029   1.021   7.718
 2228W        W 3425   0.292   7.669   4.888
 2229W        W 3426   7.219   4.737   3.237
 2230W        W 3427   4.574   3.697   5.924
 2231W        W 3428   2.107   2.008   0.655
 2232W        W 3429   6.875   3.095   0.971
 2233W        W 3430   5.652   6.236   1.100
 2234W        W 3431   3.218   6.107   1.907
 2235W        W 3432   6.686   6.003   4.203
 2236W        W 3433   1.544   0.199   5.038
 2237W        W 3434   1.450   0.460   4.087
 2238W        W 3435   2.841   6.672   1.246
 2239W        W 3436   1.278   3.882   4.863
 2240W        W 3437   5.001   5.580   7.208
 2241W        W 3438   5.764   7.175   5.399
 2242W        W 3439   4.330   1.230   4.911
 2243W        W 3440   1.903   2.693   0.976
 2244W        W 3441   5.820   0.175   0.058
 2245W        W 3442   0.478   6.759   5.044
 2246W        W 3443   5.564   5.823   5.305
 2247W        W 3444   4.043   5.097   0.883
 2248W        W 3445   5.302   6.684   0.721
 2249W        W 3446   5.586   1.293   3.450
 2250W        W 3447   0.690   5.426   4.971
 2251W        W 3448   2.518   0.477   4.889
 2252W        W 3449   0.700   3.652   7.780
 2253W        W 3450   1.488   5.189   6.388
 2254W        W 3451   1.044   1.307   4.171
 2255W        W 3452   3.809   7.745   2.842
 2256W        W 3453   6.523   5.783   7.263
 2257W        W 3454   3.752   0.503   6.073
 2258W        W 3455   7.441   5.738   4.790
 2259W        W 3456   3.101   5.711   1.584
 2260W        W 3457   3.629   3.848   0.435
 2261W        W 3458   5.246   2.146   3.864
 2262W        W 3459   0.525   2.920   5.693
 2263W        W 3460   6.967   2.028   1.001
 2264W        W 3461   4.198   2.082   1.728
 2265W        W 3462   2.406   5.881   1.700
 2266W        W 3463   4.833   2.440   3.589
 2267W        W 3464   3.858   0.726   2.009
 2268W        W 3465   1.931   6.158   1.784
 2269W        W 3466   1.214   5.196   5.003
 2270W        W 3467   2.459   0.814   2.590
 2271W        W 3468   6.746   2.628   6.981
 2272W        W 3469   7.754   1.383   6.869
 2273W        W 3470   7.678   3.352   3.801
 2274W        W 3471   3.599   4.221   3.202
 2275W        W 3472   4.835   6.475   6.102
 2276W        W 3473   2.079   7.093   2.774
 2277W        W 3474   0.333   0.955   2.018
 2278W        W 3475   6.668   1.202   5.647
 2279W        W 3476   5.373   4.605   5.382
 2280W        W 3477   2.251   4.376   7.539
 2281W        W 3478   4.640   3.769   4.008
 2282W        W 3479   1.216   3.720   3.284
 2283W        W 3480   6.456   1.651   3.801
 2284W        W 3481   4.944   2.586   4.064
 2285W        W 3482   4.989   1.796   3.641
 2286W        W 3483   5.051   0.339   4.028
 2287W        W 3484   1.544   5.166   0.676
 2288W        W 3485   4.218   7.699   3.800
 2289W        W 3486   0.378   6.253   4.988
 2290W        W 3487   7.775   6.169   2.697
 2291W        W 3488   6.416   1.033   4.864
 2292W        W 3489   6.368   3.887   6.190
 2293W        W 3490   4.657   2.781   7.385
 2294W        W 3491   2.210   7.171   6.605
 2295W        W 3492   2.523   4.450   1.529
 2296W        W 3493   7.815   3.313   6.166
 2297W        W 3494   6.936   1.818   5.127
 2298W        W 3495   0.129   3.465   3.483
 2299W        W 3496   7.636   6.668   2.387
 2300W        W 3497   6.046   2.979   1.639
 2301W        W 3498   2.842   3.989   1.144
 2302W        W 3499   1.386   7.552   7.050
 2303W        W 3500   3.608   5.888   6.603
 2304W        W 3501   3.419   3.750   6.563
 2305W        W 3502   2.886   6.345   3.040
 2306W        W 3503   2.489   5.551   3.482
 2307W        W 3504   6.005   6.215   4.596
 2308W        W 3505   7.345   7.023   2.639
 2309W        W 3506   0.728   5.926   4.751
 2310W        W 3507   7.587   2.137   1.851
 2311W        W 3508   1.426   4.453   7.332
 2312W        W 3509   1.582   1.811   6.262
 2313W        W 3510   7.780   3.028   2.000
 2314W        W 3511   5.125   4.773   4.623
 2315W        W 3512   5.635   0.753   5.704
 2316W        W 3513   6.228   5.542   5.016
 2317W        W 3514   2.889   1.781   2.951
 2318W        W 3515   3.796   7.309   6.534
 2319W        W 3516   3.983   2.134   7.231
 2320W        W 3517   3.016   0.458   6.063
 2321W        W 3518   4.167   2.570   2.006
 2322W        W 3519   7.516   3.142   2.407
 2323W        W 3520   4.122   0.905   3.715
 2324W        W 3521   6.085   6.156   1.349
 2325W        W 3522   5.216   2.380   5.041
 2326W        W 3523   3.280   5.508   2.105
 2327W        W 3524   2.648   4.766   7.577
 2328W        W 3525   6.948   5.027   1.369
 2329W        W 3526   1.845   4.741   3.263
 2330W        W 3527   7.701   6.138   2.143
 2331W        W 3528   5.475   5.899   7.382
 2332W        W 3529   1.669   4.319   6.824
 2333W        W 3530   3.161   6.835   0.380
 2334W        W 3531   4.757   3.484   4.378
 2335W        W 3532   0.737   3.278   4.419
 2336W        W 3533   2.713   1.525   3.347
 2337W        W 3534   4.017   1.925   0.666
 2338W        W 3535   2.654   5.614   5.578
 2339W        W 3536   0.277   2.676   4.247
 2340W        W 3537   0.895   0.387   2.244
 2341W        W 3538   1.253   7.497   6.562
 2342W        W 3539   2.128   1.851   0.100
 2343W        W 3540   0.079   3.171   7.051
 2344W        W 3541   2.124   1.533   0.523
 2345W        W 3542   1.473   0.910   7.377
 2346W        W 3543   5.721   2.465   5.275
 2347W        W 3544   7.246   2.710   7.094
 2348W        W 3545   2.497   2.480   7.671
 2349W        W 3546   6.748   0.224   3.354
 2350W        W 3547   7.149   4.594   1.848
 2351W        W 3548   7.420   6.188   3.252
 2352W        W 3549   2.365   4.870   1.741
 2353W        W 3550   2.344   5.361   3.023
 2354W        W 3551   4.668   2.637   5.943
 2355W        W 3552   5.416   0.299   1.415
 2356W        W 3553   0.714   0.625   1.251
 2357W        W 3554   6.664   1.625   4.260
 2358W        W 3555   6.093   2.588   7.528
 2359W        W 3556   0.735   2.176   3.923
 2360W        W 3557   2.472   4.007   7.906
 2361W        W 3558   0.124   0.319   5.971
 2362W        W 3559   3.785   5.977   1.942
 2363W        W 3560   6.416   1.162   0.953
 2364W        W 3561   0.616   5.456   4.477
 2365W        W 3562   4.770   0.497   1.006
 2366W        W 3563   6.089   6.457   7.037
 2367W        W 3564   4.948   4.407   4.291
 2368W        W 3565   4.021   0.525   1.183
 2369W        W 3566   0.982   5.379   3.104
 2370W        W 3567   1.874   6.790   5.058
 2371W        W 3568   7.388   7.790   0.654
 2372W        W 3569   5.789   1.072   3.986
 2373W        W 3570   1.422   7.697   1.736
 2374W        W 3571   0.399   6.776   7.109
 2375W        W 3572   2.571   6.662   5.562
 2376W        W 3573   1.515   5.928   3.133
 2377W        W 3574   0.562   5.079   2.993
 2378W        W 3575   0.048   2.331   1.604
 2379W        W 3576   5.876   3.898   5.409
 2380W        W 3577   6.328   3.468   2.389
 2381W        W 3578   7.739   4.039   4.773
 2382W        W 3579   7.054   3.440   6.324
 2383W        W 3580   0.449   6.542   6.282
 2384W        W 3581   3.318   0.495   0.563
 2385W        W 3582   4.597   5.111   0.743
 2386W        W 3583   6.973   7.115   6.179
 2387W        W 3584   3.531   5.749   1.316
 2388W        W 3585   5.920   3.782   2.504
 2389W        W 3586   6.714   0.337   0.696
 2390W        W 3587   3.046   5.043   3.254
 2391W        W 3588   3.563   3.407   1.516
 2392W        W 3589   0.611   1.831   6.543
 2393W        W 3590   1.387   1.882   1.261
 2394W        W 3591   0.260   2.685   6.922
 2395W        W 3592   1.723   7.499   2.662
 2396W        W 3593   0.535   3.169   6.935
 2397W        W 3594   4.471   3.153   5.026
 2398W        W 3595   1.766   0.051   7.825
 2399W        W 3596   0.105   3.608   2.334
 2400W        W 3597   0.006   4.725   1.240
 2401W        W 3598   5.667   1.540   7.806
 2402W        W 3599   5.573   7.132   2.179
 2403W        W 3600   3.560   7.734   1.169
 2404W        W 3601   7.490   5.391   5.845
 2405W        W 3602   0.345   7.358   4.519
 2406W        W 3603   4.143   5.910   4.855
 2407W        W 3604   6.805   5.598   0.408
 2408W        W 3605   7.418   0.932   6.603
 2409W        W 3606   6.976   0.385   5.312
 2410W        W 3607   7.733   5.711   0.834
 2411W        W 3608   2.811   0.996   3.451
 2412W        W 3609   1.947   3.795   2.443
 2413W        W 3610   0.812   1.661   2.568
 2414W        W 3611   4.363   5.885   3.957
 2415W        W 3612   3.529   3.205   7.190
 2416W        W 3613   4.083   5.937   0.694
 2417W        W 3614   5.164   0.648   5.404
 2418W        W 3615   4.376   6.682   0.408
 2419W        W 3616   1.649   6.723   0.546
 2420W        W 3617   1.018   7.369   0.304
 2421W        W 3618   0.497   7.269   5.866
 2422W        W 3619   4.168   1.601   1.884
 2423W        W 3620   3.632   4.877   5.559
 2424W        W 3621   1.813   1.007   5.984
 2425W        W 3622   6.402   2.012   1.215
 2426W        W 3623   6.800   6.619   4.339
 2427W        W 3624   5.906   1.622   7.385
 2428W        W 3625   3.027   5.059   0.292
 2429W        W 3626   5.255   0.737   2.779
 2430W        W 3627   1.573   6.450   1.006
 2431W        W 3628   5.969   5.424   0.189
 2432W        W 3629   2.864   7.593   2.671
 2433W        W 3630   5.937   4.965   0.338
 2434W        W 3631   0.337   0.353   1.144
 2435W        W 3632   0.361   1.744   7.038
 2436W        W 3633   5.133   6.178   1.843
 2437W        W 3634   5.234   1.069   5.671
 2438W        W 3635   4.977   0.911   0.710
 2439W        W 3636   6.980   4.215   0.385
 2440W        W 3637   6.265   4.616   0.497
 2441W        W 3638   0.693   2.947   6.170
 2442W        W 3639   5.735   7.279   4.881
 2443W        W 3640   0.652   7.721   6.337
 2444W        W 3641   5.180   2.272   4.394
 2445W        W 3642   6.424   0.415   7.258
 2446W        W 3643   2.970   3.943   0.026
 2447W        W 3644   1.914   5.865   0.026
 2448W        W 3645   7.019   2.481   5.075
 2449W        W 3646   1.423   7.909   2.635
 2450W        W 3647   5.348   3.596   5.300
 2451W        W 3648   2.320   0.459   7.355
 2452W        W 3649   2.188   4.181   5.445
 2453W        W 3650   2.401   7.662   2.614
 2454W        W 3651   2.248   3.767   3.332
 2455W        W 3652   2.496   0.292   6.236
 2456W        W 3653   2.027   6.950   7.004
 2457W        W 3654   5.732   7.474   3.623
 2458W        W 3655   7.351   5.460   0.594
 2459W        W 3656   4.112   5.575   5.922
 2460W        W 3657   6.792   3.656   4.180
 2461W        W 3658   4.207   2.737   1.044
 2462W        W 3659   2.364   0.408   5.367
 2463W        W 3660   1.558   7.899   6.714
 2464W        W 3661   4.589   4.633   0.505
 2465W        W 3662   7.105   2.168   5.639
 2466W        W 3663   6.606   0.809   6.475
 2467W        W 3664   3.922   1.346   3.645
 2468W        W 3665   7.095   3.638   1.883
 2469W        W 3666   3.593   1.170   1.919
 2470W        W 3667   2.097   5.184   6.334
 2471W        W 3668   1.702   3.344   5.098
 2472W        W 3669   5.229   7.800   4.676
 2473W        W 3670   4.772   6.931   2.233
 2474W        W 3671   4.193   1.589   4.560
 2475W        W 3672   4.607   1.358   4.465
 2476W        W 3673   4.005   6.727   5.289
 2477W        W 3674   6.422   1.648   5.957
 2478W        W 3675   5.718   2.274   3.918
 2479W        W 3676   5.662   4.097   6.666
 2480W        W 3677   3.058   2.220   2.966
 2481W        W 3678   0.782   4.666   5.703
 2482W        W 3679   6.210   6.125   0.825
 2483W        W 3680   4.046   4.061   1.727
 2484W        W 3681   3.890   2.319   1.078
 2485W        W 3682   5.753   5.306   4.319
 2486W        W 3683   0.509   3.820   0.246
 2487W        W 3684   0.234   1.455   4.714
 2488W        W 3685   5.437   7.804   5.547
 2489W        W 3686   4.380   7.188   1.236
 2490W        W 3687   7.499   0.765   1.802
 2491W        W 3688   1.379   4.820   5.301
 2492W        W 3689   0.570   7.420   0.092
 2493W        W 3690   7.607   1.091   5.214
 2494W        W 3691   5.702   2.681   2.897
 2495W        W 3692   5.216   4.017   4.122
 2496W        W 3693   0.181   7.594   3.207
 2497W        W 3694   0.159   5.154   6.984
 2498W        W 3695   5.437   1.667   5.133
 2499W        W 3696   6.451   5.179   0.423
 2500W        W 3697   1.880   6.525   1.425
 2501W        W 3698   0.325   7.020   6.262
 2502W        W 3699   4.205   2.435   0.133
 2503W        W 3700   3.630   3.316   3.366
 2504W        W 3701   2.681   5.839   6.015
 2505W        W 3702   1.880   3.799   7.031
 2506W        W 3703   1.731   4.155   1.392
 2507W        W 3704   6.189   2.807   3.303
 2508W        W 3705   2.589   2.262   0.769
 2509W        W 3706   0.083   7.937   2.788
 2510W        W 3707   1.427   7.550   7.745
 2511W        W 3708   7.312   3.500   2.806
 2512W        W 3709   2.446   2.640   0.448
 2513W        W 3710   2.270   7.639   3.887
 2514W        W 3711   0.281   1.747   3.311
 2515W        W 3712   5.383   6.156   3.094
 2516W        W 3713   3.305   6.341   6.872
 2517W        W 3714   3.836   4.279   7.706
 2518W        W 3715   2.683   4.563   2.004
 2519W        W 3716   6.428   5.386   6.414
 2520W        W 3717   4.001   7.482   5.566
 2521W        W 3718   1.161   0.759   2.502
 2522W        W 3719   4.167   6.508   5.791
 2523W        W 3720   2.758   4.150   3.712
 2524W        W 3721   3.474   1.128   1.159
 2525W        W 3722   7.498   5.787   5.313
 2526W        W 3723   3.669   1.598   1.698
 2527W        W 3724   6.566   6.957   1.403
 2528W        W 3725   5.279   4.300   5.811
 2529W        W 3726   2.570   5.866   3.061
 2530W        W 3727   3.566   6.301   0.415
 2531W        W 3728   5.530   4.333   4.443
 2532W        W 3729   3.939   6.346   6.518
 2533W        W 3730   4.580   5.062   2.598
 2534W        W 3731   4.269   3.752   4.336
 2535W        W 3732   2.388   1.718   5.486
 2536W        W 3733   1.036   2.117   4.309
 2537W        W 3734   1.007   4.147   7.490
 2538W        W 3735   2.507   5.349   1.600
 2539W        W 3736   5.623   3.214   3.584
 2540W        W 3737   4.386   1.266   6.179
 2541W        W 3738   6.120   0.530   5.931
 2542W        W 3739   2.690   0.122   7.272
 2543W        W 3740   7.751   4.845   6.838
 2544W        W 3741   0.706   3.205   5.310
 2545W        W 3742   3.636   5.054   7.798
 2546W        W 3743   2.852   5.828   2.154
 2547W        W 3744   1.063   1.896   1.708
 2548W        W 3745   2.323   3.788   5.739
 2549W        W 3746   3.314   3.757   3.485
 2550W        W 3747   3.992   2.676   3.703
 2551W        W 3748   7.847   6.382   4.938
 2552W        W 3749   6.192   1.503   5.375
 2553W        W 3750   7.272   5.695   3.401
 2554W        W 3751   1.751   3.885   6.434
 2555W        W 3752   1.524   2.580   4.421
 2556W        W 3753   6.971   1.765   6.738
 2557W        W 3754   5.407   0.866   7.115
 2558W        W 3755   7.586   2.940   2.819
 2559W        W 3756   2.941   3.943   5.629
 2560W        W 3757   6.937   2.368   2.131
 2561W        W 3758   2.582   6.225   0.985
 2562W        W 3759   5.544   1.766   3.837
 2563W        W 3760   6.619   1.096   7.711
 2564W        W 3761   2.931   3.060   2.293
 2565W        W 3762   2.894   2.756   0.642
 2566W        W 3763   4.837   1.539   3.198
 2567W        W 3764   4.966   7.599   3.900
 2568W        W 3765   2.811   7.005   5.059
 2569W        W 3766   0.876   7.198   7.053
 2570W        W 3767   5.157   6.276   1.024
 2571W        W 3768   6.893   5.071   5.193
 2572W        W 3769   5.243   7.000   3.580
 2573W        W 3770   7.417   4.170   5.291
 2574W        W 3771   3.974   5.042   3.227
 2575W        W 3772   6.913   4.042   7.070
 2576W        W 3773   7.773   5.127   4.943
 2577W        W 3774   6.335   5.809   0.360
 2578W        W 3775   4.672   6.359   0.959
 2579W        W 3776   4.944   0.346   4.545
 2580W        W 3777   3.535   5.832   7.183
 2581W        W 3778   4.285   1.510   0.373
 2582W        W 3779   6.059   7.050   0.013
 2583W        W 3780   2.436   1.738   1.533
 2584W        W 3781   3.260   4.584   3.289
 2585W        W 3782   6.609   2.451   5.908
 2586W        W 3783   0.387   3.370   7.539
 2587W        W 3784   1.338   5.068   4.095
 2588W        W 3785   5.545   2.630   5.819
 2589W        W 3786   1.404   2.020   2.185
 2590W        W 3787   5.132   2.349   6.064
 2591W        W 3788   2.704   7.130   1.074
 2592W        W 3789   2.168   1.323   7.575
 2593W        W 3790   1.284   0.581   5.247
 2594W        W 3791   3.938   2.545   4.599
 2595W        W 3792   1.451   5.430   3.326
 2596W        W 3793   6.564   4.721   1.683
 2597W        W 3794   3.305   6.248   3.908
 2598W        W 3795   5.047   1.882   4.796
 2599W        W 3796   7.404   4.451   6.934
 2600W        W 3797   2.539   1.081   3.998
 2601W        W 3798   2.725   4.810   0.696
 2602W        W 3799   7.445   5.691   7.374
 2603W        W 3800   5.602   1.385   0.253
 2604W        W 3801   4.773   4.473   2.067
 2605W        W 3802   6.054   0.955   2.444
 2606W        W 3803   0.097   5.353   7.504
 2607W        W 3804   6.928   6.967   5.344
 2608W        W 3805   4.544   4.298   2.798
 2609W        W 3806   7.754   2.915   4.730
 2610W        W 3807   1.880   7.500   6.780
 2611W        W 3808   3.397   2.205   7.298
 2612W        W 3809   6.586   7.082   1.879
 2613W        W 3810   4.848   0.703   3.729
 2614W        W 3811   3.136   6.729   2.686
 2615W        W 3812   1.020   6.960   7.857
 2616W        W 3813   0.961   3.154   7.178
 2617W        W 3814   0.508   2.250   4.451
 2618W        W 3815   6.508   3.033   1.689
 2619W        W 3816   5.181   0.446   6.438
 2620W        W 3817   4.795   2.756   5.034
 2621W        W 3818   3.099   7.176   5.902
 2622W        W 3819   5.938   5.882   3.728
 2623W        W 3820   3.253   7.249   7.232
 2624W        W 3821   3.636   7.107   4.286
 2625W        W 3822   1.843   3.847   5.953
 2626W        W 3823   1.382   2.455   5.771
 2627W        W 3824   5.668   0.645   2.311
 2628W        W 3825   7.350   7.728   2.054
 2629W        W 3826   1.239   2.793   6.385
 2630W        W 3827   4.636   2.873   3.803
 2631W        W 3828   0.430   5.011   7.394
 2632W        W 3829   0.116   2.283   0.522
 2633W        W 3830   0.863   5.963   2.829
 2634W        W 3831   7.716   4.485   2.925
 2635W        W 3832   6.099   2.473   1.796
 2636W        W 3833   5.504   6.736   7.705
 2637W        W 3834   5.202   0.037   2.373
 2638W        W 3835   7.401   2.665   2.003
 2639W        W 3836   4.008   3.318   0.342
 2640W        W 3837   0.901   0.212   2.792
 2641W        W 3838   3.132   4.363   5.842
 2642W        W 3839   0.499   4.755   1.322
 2643W        W 3840   5.062   5.024   3.872
 2644W        W 3841   4.134   6.265   2.040
 2645W        W 3842   3.070   7.349   3.021
 2646W        W 3843   4.417   5.805   3.064
 2647W        W 3844   0.752   5.058   0.935
 2648W        W 3845   4.385   6.437   5.180
 2649W        W 3846   7.356   5.329   4.073
 2650W        W 3847   4.171   6.358   1.576
 2651W        W 3848   5.206   5.593   5.697
 2652W        W 3849   4.412   1.606   7.945
 2653W        W 3850   0.825   0.879   2.137
 2654W        W 3851   3.461   1.513   3.831
 2655W        W 3852   4.391   5.286   2.990
 2656W        W 3853   0.189   2.819   5.303
 2657W        W 3854   2.350   6.068   4.704
 2658W        W 3855   4.935   0.979   7.392
 2659W        W 3856   4.809   7.666   4.916
 2660W        W 3857   1.055   2.595   4.830
 2661W        W 3858   1.461   1.022   3.999
 2662W        W 3859   5.537   3.055   4.506
 2663W        W 3860   3.793   7.193   5.104
 2664W        W 3861   2.762   6.512   1.723
 2665W        W 3862   1.038   2.119   2.606
 2666W        W 3863   4.810   3.757   3.169
 2667W        W 3864   1.083   5.656   5.157
 2668W        W 3865   2.196   0.491   2.292
 2669W        W 3866   4.292   3.186   5.500
 2670W        W 3867   6.480   6.745   3.036
 2671W        W 3868   0.762   6.766   6.653
 2672W        W 3869   7.490   3.208   7.014
 2673W        W 3870   5.611   6.297   3.644
 2674W        W 3871   1.337   5.535   6.050
 2675W        W 3872   4.681   5.141   7.481
 2676W        W 3873   6.710   6.103   0.598
 2677W        W 3874   4.766   5.849   5.820
 2678W        W 3875   1.903   0.933   3.265
 2679W        W 3876   2.197   2.656   1.953
 2680W        W 3877   6.139   4.093   3.673
 2681W        W 3878   7.397   1.834   5.380
 2682W        W 3879   5.077   6.977   7.837
 2683W        W 3880   5.399   2.034   2.209
 2684W        W 3881   0.097   1.645   2.686
 2685W        W 3882   1.755   2.388   2.059
 2686W        W 3883   7.627   5.361   6.743
 2687W        W 3884   6.924   3.067   7.126
 2688W        W 3885   7.252   4.129   4.787
 2689W        W 3886   6.126   7.167   3.521
 2690W        W 3887   3.113   4.473   1.188
 2691W        W 3888   1.579   4.825   6.908
 2692W        W 3889   6.915   2.815   1.792
 2693W        W 3890   2.529   0.223   1.072
 2694W        W 3891   1.892   1.084   4.711
 2695W        W 3892   2.588   6.705   3.512
 2696W        W 3893   4.226   4.744   6.801
 2697W        W 3894   6.873   1.063   0.166
 2698W        W 3895   7.156   1.072   1.734
 2699W        W 3896   1.471   7.468   0.395
 2700W        W 3897   5.913   3.291   4.130
 2701W        W 3898   0.900   0.799   4.854
 2702W        W 3899   4.417   7.592   1.710
 2703W        W 3900   3.628   7.147   7.756
 2704W        W 3901   4.921   4.007   5.106
 2705W        W 3902   0.275   5.333   4.146
 2706W        W 3903   1.994   4.544   1.703
 2707W        W 3904   2.027   1.735   7.303
 2708W        W 3905   1.938   6.318   0.345
 2709W        W 3906   3.143   5.886   6.904
 2710W        W 3907   3.971   3.809   6.387
 2711W        W 3908   5.227   6.506   2.741
 2712W        W 3909   7.761   5.808   5.718
 2713W        W 3910   2.470   7.346   3.011
 2714W        W 3911   2.774   0.661   1.141
 2715W        W 3912   1.544   1.318   6.401
 2716W        W 3913   5.895   2.844   5.518
 2717W        W 3914   1.334   1.755   3.481
 2718W        W 3915   6.828   7.374   1.374
 2719W        W 3916   7.032   0.145   7.198
 2720W        W 3917   5.015   4.413   1.647
 2721W        W 3918   2.377   7.658   3.376
 2722W        W 3919   6.726   5.555   2.871
 2723W        W 3920   4.227   7.814   2.319
 2724W        W 3921   3.500   6.059   0.857
 2725W        W 3922   0.531   2.883   2.695
 2726W        W 3923   3.114   0.284   1.877
 2727W        W 3924   6.688   4.732   0.235
 2728W        W 3925   3.198   1.667   5.606
 2729W        W 3926   1.257   7.387   3.048
 2730W        W 3927   4.750   6.637   7.774
 2731W        W 3928   0.682   6.778   0.893
 2732W        W 3929   4.266   1.732   7.505
 2733W        W 3930   0.761   6.207   5.806
 2734W        W 3931   3.093   5.717   6.377
 2735W        W 3932   1.941   2.051   5.285
 2736W        W 3933   2.812   0.644   6.459
 2737W        W 3934   1.236   2.223   0.976
 2738W        W 3935   0.268   6.081   1.350
 2739W        W 3936   7.427   2.251   1.110
 2740W        W 3937   4.780   2.316   4.770
 2741W        W 3938   3.384   0.432   5.697
 2742W        W 3939   7.054   2.484   6.316
 2743W        W 3940   5.241   7.376   6.419
 2744W        W 3941   7.014   4.872   5.627
 2745W        W 3942   7.304   7.566   5.508
 2746W        W 3943   5.210   6.529   3.447
 2747W        W 3944   4.221   4.088   4.778
 2748W        W 3945   5.496   6.863   5.721
 2749W        W 3946   1.265   6.610   6.551
 2750W        W 3947   2.553   2.281   1.779
 2751W        W 3948   7.995   4.407   0.012
 2752W        W 3949   4.557   6.856   5.957
 2753W        W 3950   7.828   4.101   1.053
 2754W        W 3951   5.467   4.236   1.979
 2755W        W 3952   3.857   5.043   7.024
 2756W        W 3953   2.349   3.674   6.796
 2757W        W 3954   1.563   2.120   1.699
 2758W        W 3955   3.929   1.036   1.031
 2759W        W 3956   0.733   4.972   4.744
 2760W        W 3957   6.109   1.360   2.777
 2761W        W 3958   5.725   5.373   5.069
 2762W        W 3959   4.303   6.481   6.838
 2763W        W 3960   4.388   3.358   3.107
 2764W        W 3961   2.069   5.553   3.951
 2765W        W 3962   1.171   3.364   5.533
 2766W        W 3963   7.431   1.347   7.389
 2767W        W 3964   3.438   0.478   6.425
 2768W        W 3965   2.782   3.308   4.014
 2769W        W 3966   3.462   4.041   7.919
 2770W        W 3967   6.228   2.505   5.386
 2771W        W 3968   3.890   6.814   6.146
 2772W        W 3969   5.211   7.900   6.282
 2773W        W 3970   2.451   1.045   0.253
 2774W        W 3971   5.116   0.269   2.912
 2775W        W 3972   4.003   5.369   0.467
 2776W        W 3973   3.452   6.677   6.000
 2777W        W 3974   5.389   0.482   1.891
 2778W        W 3975   5.394   3.290   6.177
 2779W        W 3976   7.941   6.055   5.316
 2780W        W 3977   2.360   6.946   4.741
 2781W        W 3978   2.878   4.314   0.739
 2782W        W 3979   6.525   1.137   3.432
 2783W        W 3980   4.791   4.159   7.194
 2784W        W 3981   5.332   0.055   0.376
 2785W        W 3982   4.658   5.974   0.586
 2786W        W 3983   6.705   0.463   6.850
 2787W        W 3984   7.997   0.619   5.394
 2788W        W 3985   0.723   0.353   7.704
 2789W        W 3986   2.138   5.733   4.407
 2790W        W 3987   3.811   7.291   6.022
 2791W        W 3988   6.703   6.035   2.894
 2792W        W 3989   5.022   0.460   7.970
 2793W        W 3990   4.594   5.518   1.316
 2794W        W 3991   3.435   4.136   1.398
 2795W        W 3992   3.846   3.499   2.137
 2796W        W 3993   3.785   3.769   4.648
 2797W        W 3994   5.190   1.025   7.842
 2798W        W 3995   5.675   0.338   0.975
 2799W        W 3996   5.453   2.644   4.223
 2800W        W 3997   3.707   1.731   7.446
 2801W        W 3998   4.641   0.832   4.653
 2802W        W 3999   5.799   1.516   6.729
 2803W        W 4000   2.385   2.815   7.083
 2804W        W 4001   1.796   7.496   0.951
 2805W        W 4002   5.885   2.144   1.156
 2806W        W 4003   7.584   6.276   1.574
 2807W        W 4004   2.254   3.860   6.311
 2808W        W 4005   1.839   6.214   2.803
 2809W        W 4006   6.126   0.209   3.525
 2810W        W 4007   5.687   3.382   2.159
 2811W        W 4008   4.016   6.331   0.237
 2812W        W 4009   5.477   1.529   4.653
 2813W        W 4010   4.801   5.121   1.656
 2814W        W 4011   4.336   7.618   4.809
 2815W        W 4012   3.910   0.086   4.446
 2816W        W 4013   6.373   4.905   7.174
 2817W        W 4014   1.493   0.848   2.986
 2818W        W 4015   7.739   7.456   0.833
 2819W        W 4016   0.761   0.940   5.366
 2820W        W 4017   0.982   3.436   3.674
 2821W        W 4018   3.916   3.835   3.337
 2822W        W 4019   6.796   2.900   6.122
 2823W        W 4020   7.473   1.552   3.920
 2824W        W 4021   6.432   6.538   1.062
 2825W        W 4022   0.220   1.001   5.359
 2826W        W 4023   0.941   3.356   0.176
 2827W        W 4024   2.667   6.644   2.569
 2828W        W 4025   4.850   1.182   3.539
 2829W        W 4026   1.844   4.701   2.684
 2830W        W 4027   4.635   5.937   0.069
 2831W        W 4028   4.637   7.129   1.814
 2832W        W 4029   0.630   6.261   1.041
 2833W        W 4030   5.158   3.024   3.637
 2834W        W 4031   7.152   6.783   3.943
 2835W        W 4032   3.817   5.864   3.572
 2836W        W 4033   2.049   2.758   4.720
 2837W        W 4034   2.636   7.239   3.517
 2838W        W 4035   5.943   0.509   3.955
 2839W        W 4036   0.722   6.187   4.321
 2840W        W 4037   7.444   6.524   6.521
 2841W        W 4038   2.121   2.068   2.654
 2842W        W 4039   2.512   7.486   5.134
 2843W        W 4040   0.387   2.810   1.919
 2844W        W 4041   7.310   4.114   7.364
 2845W        W 4042   5.206   1.422   7.569
 2846W        W 4043   6.324   0.187   4.276
 2847W        W 4044   1.866   7.262   3.833
 2848W        W 4045   4.173   2.329   6.114
 2849W        W 4046   6.491   6.887   2.316
 2850W        W 4047   7.849   5.118   0.833
 2851W        W 4048   4.318   3.264   4.015
 2852W        W 4049   6.506   5.397   6.891
 2853W        W 4050   7.929   3.969   3.127
 2854W        W 4051   6.516   0.948   7.197
 2855W        W 4052   2.589   0.126   4.024
 2856W        W 4053   3.821   6.636   1.848
 2857W        W 4054   7.194   2.185   2.763
 2858W        W 4055   2.995   7.608   3.578
 2859W        W 4056   0.609   2.654   3.781
 2860W        W 4057   5.449   3.143   4.019
 2861W        W 4058   5.207   5.080   7.280
 2862W        W 4059   3.690   2.010   3.009
 2863W        W 4060   5.853   0.378   1.704
 2864W        W 4061   2.337   2.456   4.426
 2865W        W 4062   4.266   5.567   3.487
 2866W        W 4063   7.176   4.189   5.776
 2867W        W 4064   2.282   7.631   6.474
 2868W        W 4065   6.912   6.537   1.504
 2869W        W 4066   3.824   4.257   4.527
 2870W        W 4067   4.083   6.909   0.739
 2871W        W 4068   6.551   6.337   3.385
 2872W        W 4069   4.449   3.025   0.132
 2873W        W 4070   6.007   2.740   4.951
 2874W        W 4071   2.389   6.198   5.755
 2875W        W 4072   7.035   2.623   3.040
 2876W        W 4073   7.060   0.992   6.108
 2877W        W 4074   2.876   2.267   4.482
 2878W        W 4075   4.297   1.238   7.592
 2879W        W 4076   5.536   1.543   0.854
 2880W        W 4077   7.716   4.618   6.419
 2881W        W 4078   1.534   6.012   6.275
 2882W        W 4079   6.164   0.806   7.529
 2883W        W 4080   6.859   6.702   3.503
 2884W        W 4081   4.176   1.545   6.597
 2885W        W 4082   3.814   1.110   4.758
 2886W        W 4083   7.371   1.735   2.626
 2887W        W 4084   7.463   6.667   4.408
 2888W        W 4085   2.099   4.948   1.359
 2889W        W 4086   1.979   2.925   5.196
 2890W        W 4087   5.512   3.226   5.652
 2891W        W 4088   0.837   1.481   6.899
 2892W        W 4089   4.079   2.097   6.622
 2893W        W 4090   3.885   4.587   3.527
 2894W        W 4091   1.239   6.828   0.948
 2895W        W 4092   5.523   0.151   3.237
 2896W        W 4093   3.007   3.151   4.463
 2897W        W 4094   2.301   0.606   3.159
 2898W        W 4095   6.560   1.717   6.454
 2899W        W 4096   5.200   2.707   0.208
 2900W        W 4097   0.317   2.426   7.364
 2901W        W 4098   0.113   2.912   1.570
 2902W        W 4099   4.895   6.566   0.445
 2903W        W 4100   4.180   1.537   4.027
 2904W        W 4101   0.468   0.338   3.131
 2905W        W 4102   1.134   0.975   3.303
 2906W        W 4103   3.106   0.945   3.996
 2907W        W 4104   6.253   7.750   4.413
 2908W        W 4105   5.521   0.287   5.946
 2909W        W 4106   1.186   5.948   7.210
 2910W        W 4107   4.661   3.696   6.931
 2911W        W 4108   4.648   5.509   2.021
 2912W        W 4109   3.393   6.711   5.111
 2913W        W 4110   1.514   2.009   6.748
 2914W        W 4111   5.649   6.180   1.642
 2915W        W 4112   0.556   5.789   2.392
 2916W        W 4113   4.463   2.393   4.383
 2917W        W 4114   2.908   0.750   2.849
 2918W        W 4115   6.942   4.132   2.518
 2919W        W 4116   6.941   1.260   5.189
 2920W        W 4117   6.306   3.879   4.150
 2921W        W 4118   4.621   4.786   3.974
 2922W        W 4119   7.592   0.064   3.783
 2923W        W 4120   5.298   5.955   6.066
 2924W        W 4121   2.720   4.298   5.305
 2925W        W 4122   3.233   1.042   4.825
 2926W        W 4123   0.961   5.005   7.124
 2927W        W 4124   7.381   6.703   1.307
 2928W        W 4125   6.790   0.918   3.051
 2929W        W 4126   7.971   4.394   3.352
 2930W        W 4127   7.847   5.814   1.770
 2931W        W 4128   3.147   5.745   5.887
 2932W        W 4129   1.844   2.214   4.828
 2933W        W 4130   3.966   4.713   7.561
 2934W        W 4131   3.231   0.502   3.725
 2935W        W 4132   5.974   6.562   0.828
 2936W        W 4133   1.681   2.878   2.678
 2937W        W 4134   3.556   5.427   6.785
 2938W        W 4135   3.629   0.469   7.455
 2939W        W 4136   1.492   4.113   0.441
 2940W        W 4137   4.536   6.672   1.547
 2941W        W 4138   5.346   3.719   1.866
 2942W        W 4139   6.950   4.984   4.108
 2943W        W 4140   7.187   1.433   0.056
 2944W        W 4141   2.957   1.383   7.034
 2945W        W 4142   7.131   6.392   4.615
 2946W        W 4143   6.548   6.166   1.709
 2947W        W 4144   0.735   3.389   2.605
 2948W        W 4145   6.677   0.579   0.207
 2949W        W 4146   7.471   6.588   2.948
 2950W        W 4147   6.740   5.774   6.680
 2951W        W 4148   1.848   4.244   7.305
 2952W        W 4149   0.741   7.139   2.825
 2953W        W 4150   7.347   5.199   5.365
 2954W        W 4151   6.027   5.222   5.402
 2955W        W 4152   0.199   4.902   2.766
 2956W        W 4153   3.458   1.292   6.421
 2957W        W 4154   4.924   7.144   5.798
 2958W        W 4155   0.011   0.347   6.489
 2959W        W 4156   5.957   1.783   5.860
 2960W        W 4157   4.403   5.594   6.848
 2961W        W 4158   1.552   3.619   4.057
 2962W        W 4159   3.051   6.778   6.892
 2963W        W 4160   4.345   6.035   1.101
 2964W        W 4161   5.342   1.582   2.248
 2965W        W 4162   7.672   7.282   0.382
 2966W        W 4163   1.700   0.416   3.184
 2967W        W 4164   2.213   7.194   0.983
 2968W        W 4165   6.255   0.468   0.821
 2969W        W 4166   6.146   2.516   3.667
 2970W        W 4167   5.005   1.973   5.732
 2971W        W 4168   5.793   5.722   6.116
 2972W        W 4169   7.382   5.652   7.936
 2973W        W 4170   4.357   3.115   6.390
 2974W        W 4171   1.294   7.133   2.618
 2975W        W 4172   7.555   5.064   6.251
 2976W        W 4173   5.725   3.392   1.641
 2977W        W 4174   5.662   0.735   5.122
 2978W        W 4175   6.843   6.020   6.234
 2979W        W 4176   3.298   2.570   5.788
 2980W        W 4177   4.943   2.315   2.041
 2981W        W 4178   7.351   1.161   3.073
 2982W        W 4179   4.334   2.648   4.820
 2983W        W 4180   6.690   1.098   1.598
 2984W        W 4181   3.062   3.244   3.540
 2985W        W 4182   0.854   0.066   3.326
 2986W        W 4183   0.322   1.238   0.690
 2987W        W 4184   0.511   5.687   3.208
 2988W        W 4185   1.297   7.142   5.489
 2989W        W 4186   4.532   1.628   5.858
 2990W        W 4187   7.395   1.030   4.715
 2991W        W 4188   3.797   1.379   0.326
 2992W        W 4189   6.368   0.883   3.857
 2993W        W 4190   6.456   0.607   3.388
 2994W        W 4191   7.161   5.829   5.822
 2995W        W 4192   3.023   0.525   4.222
 2996W        W 4193   7.395   2.613   2.506
 2997W        W 4194   3.339   1.113   0.121
 2998W        W 4195   3.579   7.078   5.626
 2999W        W 4196   1.069   6.801   5.081
 3000W        W 4197   3.610   6.196   1.519
 3001W        W 4198   0.269   3.535   4.534
 3002W        W 4199   4.395   6.037   6.675
 3003W        W 4200   7.936   0.045   3.374
 3004W        W 4201   1.687   7.264   1.384
 3005W        W 4202   6.117   7.001   4.924
 3006W        W 4203   5.654   5.918   6.928
 3007W        W 4204   3.329   4.732   1.585
 3008W        W 4205   6.287   3.901   7.209
 3009W        W 4206   5.218   7.600   6.861
 3010W        W 4207   6.056   3.713   0.443
 3011W        W 4208   2.456   2.126   3.058
 3012W        W 4209   4.299   4.938   0.303
 3013W        W 4210   4.535   3.129   1.100
 3014W        W 4211   6.696   7.099   4.926
 3015W        W 4212   4.623   3.627   1.139
 3016W        W 4213   4.431   3.785   3.552
 3017W        W 4214   3.115   7.387   7.729
 3018W        W 4215   6.150   2.592   5.916
 3019W        W 4216   1.485   7.108   5.036
 3020W        W 4217   7.614   2.536   4.288
 3021W        W 4218   2.879   2.641   1.273
 3022W        W 4219   5.584   6.238   2.162
 3023W        W 4220   3.604   3.791   1.787
 3024W        W 4221   5.474   0.937   0.396
 3025W        W 4222   4.891   3.539   4.947
 3026W        W 4223   4.135   7.007   5.707
 3027W        W 4224   2.626   5.089   2.396
 3028W        W 4225   4.911   2.512   5.450
 3029W        W 4226   2.566   3.027   0.228
 3030W        W 4227   1.709   2.541   5.395
 3031W        W 4228   6.757   7.780   4.432
 3032W        W 4229   1.482   4.089   7.696
 3033W        W 4230   0.833   4.579   5.175
 3034W        W 4231   0.157   5.371   4.594
 3035W        W 4232   7.425   1.828   6.828
 3036W        W 4233   5.314   5.322   3.530
 3037W        W 4234   3.620   1.601   1.189
 3038W        W 4235   6.544   4.202   4.525
 3039W        W 4236   4.818   4.703   6.672
 3040W        W 4237   5.157   2.816   2.233
 3041W        W 4238   1.168   2.728   7.465
 3042W        W 4239   2.291   0.105   0.592
 3043W        W 4240   5.155   7.009   2.498
 3044W        W 4241   5.591   5.385   7.412
 3045W        W 4242   0.816   2.248   7.328
 3046W        W 4243   5.689   2.749   3.395
 3047W        W 4244   0.989   7.181   5.893
 3048W        W 4245   6.030   7.377   6.199
 3049W        W 4246   4.826   7.426   5.397
 3050W        W 4247   3.940   7.340   2.486
 3051W        W 4248   1.952   6.073   6.014
 3052W        W 4249   3.271   4.436   5.319
 3053W        W 4250   5.992   7.705   1.618
 3054W        W 4251   4.662   3.089   7.772
 3055W        W 4252   6.305   3.372   2.875
 3056W        W 4253   4.055   2.844   4.184
 3057W        W 4254   3.670   7.549   7.346
 3058W        W 4255   3.107   4.155   6.390
 3059W        W 4256   4.697   4.268   4.767
 3060W        W 4257   4.392   3.644   4.943
 3061W        W 4258   7.484   5.038   0.358
 3062W        W 4259   2.018   1.156   6.546
 3063W        W 4260   2.468   4.585   7.133
 3064W        W 4261   6.267   2.332   7.882
 3065W        W 4262   5.195   6.807   6.129
 3066W        W 4263   2.384   6.654   7.205
 3067W        W 4264   3.565   6.423   2.238
 3068W        W 4265   4.917   6.443   7.328
 3069W        W 4266   0.673   7.302   0.692
 3070W        W 4267   2.490   3.171   5.611
 3071W        W 4268   7.359   0.249   4.208
 3072W        W 4269   6.546   1.892   0.675
 3073W        W 4270   1.656   6.815   3.614
 3074W        W 4271   2.814   5.380   0.765
 3075W        W 4272   1.911   3.441   6.744
 3076W        W 4273   3.941   3.366   5.051
 3077W        W 4274   7.356   0.399   6.885
 3078W        W 4275   3.847   1.849   3.887
 3079W        W 4276   4.835   6.747   6.495
 3080W        W 4277   1.709   4.198   2.667
 3081W        W 4278   7.965   4.383   6.936
 3082W        W 4279   4.598   7.895   6.204
 3083W        W 4280   5.238   3.845   6.036
 3084W        W 4281   6.237   5.294   4.611
 3085W        W 4282   6.464   1.507   1.426
 3086W        W 4283   0.529   2.351   0.221
 3087W        W 4284   3.222   3.049   1.437
 3088W        W 4285   2.052   2.898   0.179
 3089W        W 4286   0.538   6.621   2.092
 3090W        W 4287   2.206   2.504   5.098
 3091W        W 4288   2.388   2.894   3.322
 3092W        W 4289   4.762   3.283   6.702
 3093W        W 4290   0.011   6.640   2.133
 3094W        W 4291   4.348   6.071   2.605
 3095W        W 4292   7.746   4.835   3.349
 3096W        W 4293   2.374   0.800   3.608
 3097W        W 4294   6.581   2.494   1.553
 3098W        W 4295   0.096   2.253   4.014
 3099W        W 4296   4.731   5.343   5.846
 3100W        W 4297   0.201   6.891   4.609
 3101W        W 4298   7.823   6.377   6.175
 3102W        W 4299   2.260   6.919   2.093
 3103W        W 4300   4.495   2.886   6.830
 3104W        W 4301   7.342   1.875   1.439
 3105W        W 4302   6.106   5.019   0.801
 3106W        W 4303   5.124   1.674   4.270
 3107W        W 4304   4.225   0.833   5.986
 3108W        W 4305   0.754   7.033   5.499
 3109W        W 4306   7.116   3.414   2.333
 3110W        W 4307   1.705   6.551   6.245
 3111W        W 4308   3.506   3.556   3.897
 3112W        W 4309   4.222   5.349   7.994
 3113W        W 4310   3.798   1.987   2.012
 3114W        W 4311   2.484   0.855   1.479
 3115W        W 4312   1.903   4.814   6.494
 3116W        W 4313   7.211   6.690   6.082
 3117W        W 4314   7.024   6.258   6.679
 3118W        W 4315   5.457   1.338   7.069
 3119W        W 4316   6.236   3.846   4.679
 3120W        W 4317   0.298   7.556   0.935
 3121W        W 4318   4.997   7.370   2.187
 3122W        W 4319   3.320   5.956   4.833
 3123W        W 4320   5.463   5.398   0.493
 3124W        W 4321   6.219   6.928   7.135
 3125W        W 4322   6.839   7.016   2.689
 3126W        W 4323   7.820   0.238   1.153
 3127W        W 4324   0.704   3.334   5.832
 3128W        W 4325   7.118   1.325   4.286
 3129W        W 4326   6.967   3.881   2.949
 3130W        W 4327   7.328   3.863   2.312
 3131W        W 4328   3.482   7.576   5.630
 3132W        W 4329   4.550   0.363   7.039
 3133W        W 4330   0.932   1.406   5.423
 3134W        W 4331   2.476   6.900   6.206
 3135W        W 4332   6.257   4.506   7.463
 3136W        W 4333   6.836   0.740   3.996
 3137W        W 4334   3.410   7.503   3.382
 3138W        W 4335   2.245   3.002   6.036
 3139W        W 4336   1.736   3.761   4.586
 3140W        W 4337   1.303   6.840   4.637
 3141W        W 4338   7.561   1.375   5.985
 3142W        W 4339   5.838   1.012   6.843
 3143W        W 4340   4.542   6.351   3.727
 3144W        W 4341   0.253   3.344   5.539
 3145W        W 4342   5.395   5.350   4.708
 3146W        W 4343   1.146   1.681   6.469
 3147W        W 4344   1.109   6.546   2.791
 3148W        W 4345   2.838   6.456   7.571
 3149W        W 4346   7.641   0.391   2.676
 3150W        W 4347   2.032   4.469   1.172
 3151W        W 4348   0.823   2.017   2.145
 3152W        W 4349   2.240   0.195   2.898
 3153W        W 4350   6.921   1.503   6.044
 3154W        W 4351   2.090   6.952   1.632
 3155W        W 4352   0.868   6.791   2.487
 3156W        W 4353   6.345   4.669   4.617
 3157W        W 4354   3.035   5.330   1.266
 3158W        W 4355   5.119   0.728   4.881
 3159W        W 4356   3.309   3.119   2.635
 3160W        W 4357   2.782   0.521   3.309
 3161W        W 4358   0.510   7.646   1.389
 3162W        W 4359   1.843   4.437   7.851
 3163W        W 4360   0.082   3.144   2.636
 3164W        W 4361   6.792   4.912   4.668
 3165W        W 4362   6.795   1.871   3.414
 3166W        W 4363   5.071   3.741   6.542
 3167W        W 4364   1.977   7.542   3.071
 3168W        W 4365   7.326   6.667   3.432
 3169W        W 4366   7.477   0.812   1.332
 3170W        W 4367   3.612   2.999   2.269
 3171W        W 4368   6.862   1.258   6.570
 3172W        W 4369   1.807   0.803   4.299
 3173W        W 4370   5.569   3.620   3.944
 3174W        W 4371   4.315   4.419   0.137
 3175W        W 4372   7.057   2.002   0.095
 3176W        W 4373   4.712   3.321   3.477
 3177W        W 4374   6.481   4.268   0.208
 3178W        W 4375   3.480   3.995   5.478
 3179W        W 4376   0.999   3.896   0.369
 3180W        W 4377   7.290   4.529   1.008
 3181W        W 4378   0.824   3.061   4.860
 3182W        W 4379   5.076   2.845   2.800
 3183W        W 4380   4.312   5.065   4.226
 3184W        W 4381   2.838   2.910   7.734
 3185W        W 4382   4.730   5.030   2.123
 3186W        W 4383   5.302   4.533   3.096
 3187W        W 4384   5.460   7.517   2.475
 3188W        W 4385   5.535   5.510   2.482
 3189W        W 4386   4.717   5.174   3.466
 3190W        W 4387   7.332   1.354   6.404
 3191W        W 4388   5.425   1.206   4.254
 3192W        W 4389   7.820   1.633   1.681
 3193W        W 4390   3.135   4.905   0.947
 3194W        W 4391   1.015   7.828   1.460
 3195W        W 4392   1.355   5.842   7.738
 3196W        W 4393   5.179   2.493   0.708
 3197W        W 4394   4.732   0.192   6.578
 3198W        W 4395   6.118   1.947   1.675
 3199W        W 4396   5.865   0.965   1.984
   8.00000   8.00000   8.00000
