Martini system from ../2_Creating_coordinates/TYR-GLY-TYR_aa.pdb
 4159
    1TYR     BB    1   2.543   6.372   3.474
    1TYR    SC1    2   2.832   6.322   3.578
    1TYR    SC2    3   2.814   6.454   3.778
    1TYR    SC3    4   2.946   6.292   3.902
    2GLY     BB    5   2.444   6.311   3.832
    3TYR     BB    6   2.416   6.487   4.101
    3TYR    SC1    7   2.652   6.403   4.249
    3TYR    SC2    8   2.654   6.523   4.458
    3TYR    SC3    9   2.729   6.325   4.575
    1TYR     BB   10   1.056   4.911   6.299
    1TYR    SC1   11   0.868   5.119   6.165
    1TYR    SC2   12   0.667   5.055   6.282
    1TYR    SC3   13   0.598   5.288   6.297
    2GLY     BB   14   0.880   5.013   6.617
    3TYR     BB   15   0.613   4.927   6.775
    3TYR    SC1   16   0.437   5.151   6.715
    3TYR    SC2   17   0.226   5.109   6.824
    3TYR    SC3   18   0.208   5.343   6.886
    1TYR     BB   19   0.534   4.554   2.263
    1TYR    SC1   20   0.224   4.528   2.287
    1TYR    SC2   21   0.221   4.426   2.505
    1TYR    SC3   22   0.023   4.553   2.565
    2GLY     BB   23   0.514   4.673   2.620
    3TYR     BB   24   0.512   4.538   2.913
    3TYR    SC1   25   0.231   4.564   2.985
    3TYR    SC2   26   0.203   4.468   3.205
    3TYR    SC3   27   0.051   4.646   3.267
    1TYR     BB   28   4.811   4.796   0.703
    1TYR    SC1   29   4.815   4.879   0.403
    1TYR    SC2   30   4.680   5.078   0.427
    1TYR    SC3   31   4.817   5.193   0.263
    2GLY     BB   32   4.874   5.162   0.766
    3TYR     BB   33   4.696   5.429   0.801
    3TYR    SC1   34   4.740   5.560   0.544
    3TYR    SC2   35   4.614   5.765   0.546
    3TYR    SC3   36   4.795   5.881   0.433
    1TYR     BB   37   4.895   5.006   3.441
    1TYR    SC1   38   4.715   4.775   3.547
    1TYR    SC2   39   4.718   4.841   3.779
    1TYR    SC3   40   4.485   4.777   3.803
    2GLY     BB   41   4.684   5.223   3.666
    3TYR     BB   42   4.688   5.313   3.976
    3TYR    SC1   43   4.473   5.150   4.085
    3TYR    SC2   44   4.456   5.201   4.320
    3TYR    SC3   45   4.214   5.193   4.308
    1TYR     BB   46   1.267   0.742   0.746
    1TYR    SC1   47   1.226   0.788   0.441
    1TYR    SC2   48   1.303   0.572   0.369
    1TYR    SC3   49   1.132   0.565   0.197
    2GLY     BB   50   1.112   0.406   0.678
    3TYR     BB   51   1.214   0.115   0.584
    3TYR    SC1   52   1.123   0.110   0.308
    3TYR    SC2   53   1.189  -0.102   0.214
    3TYR    SC3   54   0.978  -0.119   0.095
    1TYR     BB   55   3.041   0.715   0.601
    1TYR    SC1   56   2.816   0.927   0.636
    1TYR    SC2   57   2.804   0.917   0.876
    1TYR    SC3   58   2.769   1.157   0.888
    2GLY     BB   59   3.203   0.894   0.891
    3TYR     BB   60   3.190   0.880   1.212
    3TYR    SC1   61   3.032   1.117   1.273
    3TYR    SC2   62   3.007   1.129   1.513
    3TYR    SC3   63   3.038   1.370   1.507
    1TYR     BB   64   2.434   4.235   2.991
    1TYR    SC1   65   2.481   3.981   2.818
    1TYR    SC2   66   2.359   4.055   2.624
    1TYR    SC3   67   2.522   3.953   2.477
    2GLY     BB   68   2.513   4.421   2.672
    3TYR     BB   69   2.350   4.523   2.414
    3TYR    SC1   70   2.434   4.329   2.213
    3TYR    SC2   71   2.323   4.385   2.007
    3TYR    SC3   72   2.525   4.335   1.881
    1TYR     BB   73   1.637   7.095   6.366
    1TYR    SC1   74   1.484   6.860   6.499
    1TYR    SC2   75   1.615   6.850   6.700
    1TYR    SC3   76   1.417   6.802   6.832
    2GLY     BB   77   1.622   7.250   6.709
    3TYR     BB   78   1.799   7.240   6.979
    3TYR    SC1   79   1.634   7.070   7.149
    3TYR    SC2   80   1.747   7.047   7.360
    3TYR    SC3   81   1.536   7.065   7.479
    1TYR     BB   82   6.931   5.771   4.127
    1TYR    SC1   83   7.027   6.045   4.238
    1TYR    SC2   84   6.953   6.013   4.465
    1TYR    SC3   85   7.151   6.125   4.550
    2GLY     BB   86   7.077   5.633   4.446
    3TYR     BB   87   6.978   5.587   4.749
    3TYR    SC1   88   7.115   5.803   4.888
    3TYR    SC2   89   7.055   5.789   5.121
    3TYR    SC3   90   7.283   5.843   5.186
    1TYR     BB   91   3.212   7.533   6.362
    1TYR    SC1   92   3.259   7.271   6.522
    1TYR    SC2   93   3.322   7.134   6.335
    1TYR    SC3   94   3.489   7.020   6.470
    2GLY     BB   95   3.533   7.439   6.188
    3TYR     BB   96   3.619   7.258   5.936
    3TYR    SC1   97   3.731   7.024   6.069
    3TYR    SC2   98   3.803   6.871   5.898
    3TYR    SC3   99   4.002   6.817   6.026
    1TYR     BB  100   3.377   5.661   3.000
    1TYR    SC1  101   3.559   5.818   3.197
    1TYR    SC2  102   3.763   5.699   3.149
    1TYR    SC3  103   3.891   5.905   3.167
    2GLY     BB  104   3.666   5.699   2.761
    3TYR     BB  105   3.937   5.539   2.694
    3TYR    SC1  106   4.137   5.712   2.817
    3TYR    SC2  107   4.353   5.611   2.780
    3TYR    SC3  108   4.451   5.830   2.738
    1TYR     BB  109   5.252   2.128   2.172
    1TYR    SC1  110   5.150   2.415   2.107
    1TYR    SC2  111   4.919   2.356   2.074
    1TYR    SC3  112   4.848   2.562   2.182
    2GLY     BB  113   4.943   2.107   2.386
    3TYR     BB  114   4.634   2.027   2.345
    3TYR    SC1  115   4.506   2.289   2.348
    3TYR    SC2  116   4.269   2.254   2.318
    3TYR    SC3  117   4.220   2.427   2.481
    1TYR     BB  118   8.026   7.111   0.416
    1TYR    SC1  119   7.908   7.345   0.249
    1TYR    SC2  120   7.767   7.436   0.422
    1TYR    SC3  121   7.817   7.662   0.349
    2GLY     BB  122   8.059   7.371   0.687
    3TYR     BB  123   7.873   7.491   0.921
    3TYR    SC1  124   7.802   7.751   0.809
    3TYR    SC2  125   7.660   7.862   0.968
    3TYR    SC3  126   7.770   8.074   0.924
    1TYR     BB  127   1.733   3.869   8.139
    1TYR    SC1  128   1.452   3.776   8.043
    1TYR    SC2  129   1.479   3.839   7.812
    1TYR    SC3  130   1.358   3.640   7.741
    2GLY     BB  131   1.854   3.703   7.824
    3TYR     BB  132   1.893   3.785   7.514
    3TYR    SC1  133   1.668   3.648   7.390
    3TYR    SC2  134   1.676   3.695   7.154
    3TYR    SC3  135   1.612   3.467   7.103
    1TYR     BB  136   0.868   6.426   7.582
    1TYR    SC1  137   0.667   6.392   7.818
    1TYR    SC2  138   0.471   6.357   7.683
    1TYR    SC3  139   0.389   6.192   7.841
    2GLY     BB  140   0.687   6.129   7.436
    3TYR     BB  141   0.426   6.079   7.254
    3TYR    SC1  142   0.236   5.981   7.452
    3TYR    SC2  143   0.029   5.936   7.338
    3TYR    SC3  144  -0.003   5.734   7.469
    1TYR     BB  145   6.221   2.701   5.117
    1TYR    SC1  146   6.454   2.496   5.098
    1TYR    SC2  147   6.577   2.574   5.290
    1TYR    SC3  148   6.635   2.346   5.350
    2GLY     BB  149   6.231   2.622   5.485
    3TYR     BB  150   6.393   2.728   5.744
    3TYR    SC1  151   6.582   2.510   5.786
    3TYR    SC2  152   6.716   2.566   5.977
    3TYR    SC3  153   6.709   2.336   6.054
    1TYR     BB  154   4.546   6.990   1.692
    1TYR    SC1  155   4.454   6.701   1.620
    1TYR    SC2  156   4.614   6.585   1.757
    1TYR    SC3  157   4.448   6.418   1.815
    2GLY     BB  158   4.557   6.857   2.045
    3TYR     BB  159   4.771   6.704   2.231
    3TYR    SC1  160   4.663   6.433   2.231
    3TYR    SC2  161   4.808   6.297   2.366
    3TYR    SC3  162   4.617   6.181   2.461
    1TYR     BB  163   2.575   4.464   6.448
    1TYR    SC1  164   2.854   4.574   6.530
    1TYR    SC2  165   2.982   4.451   6.367
    1TYR    SC3  166   3.129   4.642   6.334
    2GLY     BB  167   2.696   4.523   6.096
    3TYR     BB  168   2.865   4.359   5.876
    3TYR    SC1  169   3.123   4.495   5.889
    3TYR    SC2  170   3.269   4.388   5.730
    3TYR    SC3  171   3.361   4.603   5.665
    1TYR     BB  172   5.473   1.840   6.004
    1TYR    SC1  173   5.709   1.715   5.844
    1TYR    SC2  174   5.579   1.639   5.656
    1TYR    SC3  175   5.759   1.699   5.504
    2GLY     BB  176   5.370   1.980   5.670
    3TYR     BB  177   5.195   1.881   5.418
    3TYR    SC1  178   5.403   1.819   5.224
    3TYR    SC2  179   5.294   1.741   5.024
    3TYR    SC3  180   5.453   1.864   4.887
    1TYR     BB  181   4.283   2.560   5.540
    1TYR    SC1  182   4.551   2.451   5.654
    1TYR    SC2  183   4.666   2.429   5.443
    1TYR    SC3  184   4.874   2.503   5.545
    2GLY     BB  185   4.506   2.776   5.326
    3TYR     BB  186   4.658   2.749   5.043
    3TYR    SC1  187   4.933   2.710   5.129
    3TYR    SC2  188   5.069   2.687   4.931
    3TYR    SC3  189   5.245   2.821   5.032
    1TYR     BB  190   2.084   0.992   1.105
    1TYR    SC1  191   1.811   1.007   1.254
    1TYR    SC2  192   1.878   0.883   1.449
    1TYR    SC3  193   1.747   1.029   1.591
    2GLY     BB  194   2.230   1.073   1.443
    3TYR     BB  195   2.323   0.908   1.704
    3TYR    SC1  196   2.104   0.964   1.888
    3TYR    SC2  197   2.151   0.849   2.094
    3TYR    SC3  198   2.069   1.039   2.222
    1TYR     BB  199   3.776   1.043   6.906
    1TYR    SC1  200   3.801   1.353   6.929
    1TYR    SC2  201   3.728   1.370   7.158
    1TYR    SC3  202   3.891   1.546   7.200
    2GLY     BB  203   3.940   1.043   7.246
    3TYR     BB  204   3.844   1.064   7.553
    3TYR    SC1  205   3.922   1.337   7.618
    3TYR    SC2  206   3.859   1.377   7.847
    3TYR    SC3  207   4.065   1.500   7.885
    1TYR     BB  208   6.432   3.722   7.252
    1TYR    SC1  209   6.382   3.463   7.087
    1TYR    SC2  210   6.289   3.570   6.892
    1TYR    SC3  211   6.403   3.413   6.747
    2GLY     BB  212   6.563   3.859   6.926
    3TYR     BB  213   6.440   4.005   6.666
    3TYR    SC1  214   6.446   3.789   6.471
    3TYR    SC2  215   6.357   3.875   6.265
    3TYR    SC3  216   6.525   3.754   6.138
    1TYR     BB  217   2.438   2.776   3.129
    1TYR    SC1  218   2.633   2.674   2.909
    1TYR    SC2  219   2.539   2.453   2.887
    1TYR    SC3  220   2.575   2.459   2.647
    2GLY     BB  221   2.173   2.613   2.915
    3TYR     BB  222   2.043   2.319   2.885
    3TYR    SC1  223   2.168   2.226   2.639
    3TYR    SC2  224   2.086   2.005   2.595
    3TYR    SC3  225   2.071   2.054   2.358
    1TYR     BB  226   2.192   7.081   2.698
    1TYR    SC1  227   2.146   6.793   2.806
    1TYR    SC2  228   2.203   6.838   3.035
    1TYR    SC3  229   2.027   6.690   3.112
    2GLY     BB  230   2.008   7.186   3.010
    3TYR     BB  231   2.084   7.250   3.317
    3TYR    SC1  232   1.985   7.011   3.450
    3TYR    SC2  233   2.031   7.035   3.686
    3TYR    SC3  234   1.816   6.938   3.741
    1TYR     BB  235   1.693   1.287   7.136
    1TYR    SC1  236   1.577   1.422   6.881
    1TYR    SC2  237   1.416   1.251   6.828
    1TYR    SC3  238   1.255   1.419   6.759
    2GLY     BB  239   1.331   1.217   7.218
    3TYR     BB  240   1.116   0.987   7.150
    3TYR    SC1  241   0.949   1.122   6.952
    3TYR    SC2  242   0.778   0.967   6.885
    3TYR    SC3  243   0.613   1.146   6.882
    1TYR     BB  244   2.026   7.114   0.223
    1TYR    SC1  245   1.873   6.851   0.289
    1TYR    SC2  246   2.055   6.739   0.400
    1TYR    SC3  247   1.901   6.644   0.562
    2GLY     BB  248   2.153   7.084   0.576
    3TYR     BB  249   2.397   6.937   0.727
    3TYR    SC1  250   2.259   6.715   0.856
    3TYR    SC2  251   2.424   6.588   0.977
    3TYR    SC3  252   2.269   6.557   1.161
    1TYR     BB  253   0.396   4.514   0.223
    1TYR    SC1  254   0.430   4.630   0.510
    1TYR    SC2  255   0.447   4.418   0.625
    1TYR    SC3  256   0.615   4.510   0.774
    2GLY     BB  257   0.674   4.281   0.326
    3TYR     BB  258   0.699   3.997   0.476
    3TYR    SC1  259   0.797   4.079   0.738
    3TYR    SC2  260   0.823   3.881   0.872
    3TYR    SC3  261   1.030   3.968   0.965
    1TYR     BB  262   1.898   5.545   6.202
    1TYR    SC1  263   2.176   5.514   6.066
    1TYR    SC2  264   2.168   5.275   6.039
    1TYR    SC3  265   2.277   5.293   5.823
    2GLY     BB  266   1.783   5.304   5.937
    3TYR     BB  267   1.769   4.984   5.900
    3TYR    SC1  268   1.990   4.939   5.715
    3TYR    SC2  269   2.001   4.702   5.672
    3TYR    SC3  270   2.049   4.744   5.438
    1TYR     BB  271   1.780   3.297   6.226
    1TYR    SC1  272   1.935   3.468   6.435
    1TYR    SC2  273   1.775   3.648   6.449
    1TYR    SC3  274   1.813   3.668   6.688
    2GLY     BB  275   1.479   3.380   6.437
    3TYR     BB  276   1.263   3.618   6.455
    3TYR    SC1  277   1.354   3.760   6.693
    3TYR    SC2  278   1.206   3.946   6.727
    3TYR    SC3  279   1.208   3.908   6.967
    1TYR     BB  280   7.687   2.910   5.422
    1TYR    SC1  281   7.694   2.690   5.642
    1TYR    SC2  282   7.604   2.825   5.820
    1TYR    SC3  283   7.478   2.635   5.904
    2GLY     BB  284   7.345   2.985   5.561
    3TYR     BB  285   7.222   3.166   5.797
    3TYR    SC1  286   7.158   2.964   5.997
    3TYR    SC2  287   7.063   3.078   6.188
    3TYR    SC3  288   6.900   2.900   6.216
    1TYR     BB  289   3.445   7.284   0.574
    1TYR    SC1  290   3.669   7.217   0.778
    1TYR    SC2  291   3.623   7.397   0.931
    1TYR    SC3  292   3.672   7.253   1.121
    2GLY     BB  293   3.232   7.334   0.881
    3TYR     BB  294   3.168   7.575   1.085
    3TYR    SC1  295   3.323   7.494   1.319
    3TYR    SC2  296   3.290   7.662   1.488
    3TYR    SC3  297   3.279   7.491   1.660
    1TYR     BB  298   1.255   1.713   1.733
    1TYR    SC1  299   1.169   1.922   1.947
    1TYR    SC2  300   0.983   2.014   1.824
    1TYR    SC3  301   0.854   2.034   2.029
    2GLY     BB  302   0.886   1.645   1.706
    3TYR     BB  303   0.636   1.764   1.540
    3TYR    SC1  304   0.499   1.917   1.747
    3TYR    SC2  305   0.305   2.018   1.646
    3TYR    SC3  306   0.173   1.971   1.844
    1TYR     BB  307   7.595   4.637   5.691
    1TYR    SC1  308   7.843   4.638   5.879
    1TYR    SC2  309   7.730   4.718   6.076
    1TYR    SC3  310   7.864   4.571   6.216
    2GLY     BB  311   7.420   4.482   5.987
    3TYR     BB  312   7.265   4.586   6.250
    3TYR    SC1  313   7.464   4.533   6.457
    3TYR    SC2  314   7.370   4.605   6.667
    3TYR    SC3  315   7.464   4.411   6.778
    1TYR     BB  316   3.241   4.621   5.171
    1TYR    SC1  317   3.392   4.451   5.385
    1TYR    SC2  318   3.310   4.236   5.313
    1TYR    SC3  319   3.527   4.136   5.358
    2GLY     BB  320   3.355   4.352   4.933
    3TYR     BB  321   3.247   4.065   4.833
    3TYR    SC1  322   3.425   3.885   4.976
    3TYR    SC2  323   3.362   3.660   4.917
    3TYR    SC3  324   3.596   3.594   4.907
    1TYR     BB  325  -0.120   3.613   8.117
    1TYR    SC1  326   0.116   3.704   7.936
    1TYR    SC2  327   0.261   3.517   7.981
    1TYR    SC3  328   0.336   3.514   7.750
    2GLY     BB  329  -0.056   3.274   7.965
    3TYR     BB  330   0.135   3.021   8.026
    3TYR    SC1  331   0.336   3.050   7.817
    3TYR    SC2  332   0.493   2.870   7.842
    3TYR    SC3  333   0.506   2.843   7.601
    1TYR     BB  334   2.511   7.732   6.022
    1TYR    SC1  335   2.710   7.665   5.792
    1TYR    SC2  336   2.545   7.629   5.621
    1TYR    SC3  337   2.688   7.736   5.456
    2GLY     BB  338   2.338   7.942   5.760
    3TYR     BB  339   2.116   7.896   5.532
    3TYR    SC1  340   2.280   7.896   5.291
    3TYR    SC2  341   2.134   7.863   5.103
    3TYR    SC3  342   2.259   8.025   4.973
    1TYR     BB  343   0.304   1.916   3.859
    1TYR    SC1  344   0.576   1.845   3.990
    1TYR    SC2  345   0.585   2.031   4.142
    1TYR    SC3  346   0.682   1.890   4.315
    2GLY     BB  347   0.194   1.985   4.213
    3TYR     BB  348   0.202   2.234   4.417
    3TYR    SC1  349   0.416   2.154   4.597
    3TYR    SC2  350   0.442   2.328   4.761
    3TYR    SC3  351   0.476   2.162   4.936
    1TYR     BB  352   7.480   1.854   6.648
    1TYR    SC1  353   7.736   1.676   6.657
    1TYR    SC2  354   7.876   1.820   6.524
    1TYR    SC3  355   8.067   1.769   6.665
    2GLY     BB  356   7.721   2.136   6.713
    3TYR     BB  357   7.907   2.332   6.537
    3TYR    SC1  358   8.171   2.219   6.586
    3TYR    SC2  359   8.330   2.351   6.463
    3TYR    SC3  360   8.488   2.339   6.647
    1TYR     BB  361   6.046   5.325   6.002
    1TYR    SC1  362   5.873   5.087   6.103
    1TYR    SC2  363   5.895   4.949   5.907
    1TYR    SC3  364   5.908   4.750   6.044
    2GLY     BB  365   6.280   5.054   5.883
    3TYR     BB  366   6.313   4.871   5.619
    3TYR    SC1  367   6.213   4.615   5.716
    3TYR    SC2  368   6.227   4.458   5.533
    3TYR    SC3  369   6.302   4.283   5.685
    1TYR     BB  370   5.773   1.672   3.342
    1TYR    SC1  371   5.642   1.596   3.069
    1TYR    SC2  372   5.730   1.781   2.943
    1TYR    SC3  373   5.763   1.637   2.750
    2GLY     BB  374   6.079   1.739   3.133
    3TYR     BB  375   6.199   1.987   2.965
    3TYR    SC1  376   6.145   1.902   2.692
    3TYR    SC2  377   6.227   2.074   2.545
    3TYR    SC3  378   6.310   1.907   2.390
    1TYR     BB  379   5.032   3.542   7.614
    1TYR    SC1  380   5.095   3.286   7.449
    1TYR    SC2  381   4.948   3.333   7.264
    1TYR    SC3  382   5.111   3.243   7.108
    2GLY     BB  383   5.059   3.717   7.281
    3TYR     BB  384   4.863   3.784   7.034
    3TYR    SC1  385   4.954   3.591   6.836
    3TYR    SC2  386   4.819   3.621   6.638
    3TYR    SC3  387   5.014   3.589   6.497
    1TYR     BB  388   4.726   6.681   7.022
    1TYR    SC1  389   5.018   6.768   7.087
    1TYR    SC2  390   5.112   6.713   6.872
    1TYR    SC3  391   5.255   6.910   6.882
    2GLY     BB  392   4.786   6.862   6.696
    3TYR     BB  393   4.909   6.791   6.408
    3TYR    SC1  394   5.168   6.924   6.422
    3TYR    SC2  395   5.282   6.884   6.214
    3TYR    SC3  396   5.366   7.112   6.212
    1TYR     BB  397   2.533   4.118   0.457
    1TYR    SC1  398   2.712   4.324   0.608
    1TYR    SC2  399   2.537   4.420   0.743
    1TYR    SC3  400   2.689   4.439   0.932
    2GLY     BB  401   2.386   4.054   0.799
    3TYR     BB  402   2.151   4.179   0.980
    3TYR    SC1  403   2.305   4.330   1.177
    3TYR    SC2  404   2.148   4.435   1.326
    3TYR    SC3  405   2.292   4.386   1.516
    1TYR     BB  406   6.362   2.749   3.647
    1TYR    SC1  407   6.349   3.052   3.717
    1TYR    SC2  408   6.587   3.090   3.725
    1TYR    SC3  409   6.559   3.308   3.622
    2GLY     BB  410   6.630   2.856   3.404
    3TYR     BB  411   6.948   2.904   3.412
    3TYR    SC1  412   6.962   3.195   3.412
    3TYR    SC2  413   7.195   3.257   3.418
    3TYR    SC3  414   7.154   3.437   3.260
    1TYR     BB  415   5.393   2.533   6.891
    1TYR    SC1  416   5.569   2.312   7.022
    1TYR    SC2  417   5.725   2.459   7.131
    1TYR    SC3  418   5.734   2.313   7.325
    2GLY     BB  419   5.422   2.701   7.227
    3TYR     BB  420   5.628   2.901   7.372
    3TYR    SC1  421   5.764   2.720   7.556
    3TYR    SC2  422   5.927   2.848   7.678
    3TYR    SC3  423   5.873   2.728   7.882
    1TYR     BB  424   6.682   0.632   4.093
    1TYR    SC1  425   6.868   0.466   3.906
    1TYR    SC2  426   6.793   0.561   3.698
    1TYR    SC3  427   7.019   0.556   3.610
    2GLY     BB  428   6.783   0.921   3.872
    3TYR     BB  429   6.682   1.051   3.595
    3TYR    SC1  430   6.887   0.958   3.410
    3TYR    SC2  431   6.832   1.044   3.192
    3TYR    SC3  432   7.067   1.090   3.147
    1TYR     BB  433   1.223   6.594   3.836
    1TYR    SC1  434   0.943   6.689   3.932
    1TYR    SC2  435   0.842   6.703   3.715
    1TYR    SC3  436   0.632   6.619   3.803
    2GLY     BB  437   1.027   6.365   3.611
    3TYR     BB  438   0.892   6.382   3.319
    3TYR    SC1  439   0.610   6.405   3.387
    3TYR    SC2  440   0.487   6.420   3.181
    3TYR    SC3  441   0.312   6.277   3.271
    1TYR     BB  442   1.289   0.505   4.699
    1TYR    SC1  443   1.130   0.240   4.738
    1TYR    SC2  444   1.085   0.199   4.505
    1TYR    SC3  445   1.116  -0.039   4.538
    2GLY     BB  446   1.456   0.318   4.417
    3TYR     BB  447   1.399   0.264   4.105
    3TYR    SC1  448   1.307  -0.013   4.110
    3TYR    SC2  449   1.257  -0.077   3.884
    3TYR    SC3  450   1.354  -0.297   3.922
    1TYR     BB  451   5.891   0.402   1.208
    1TYR    SC1  452   5.781   0.614   1.009
    1TYR    SC2  453   5.668   0.459   0.862
    1TYR    SC3  454   5.485   0.616   0.833
    2GLY     BB  455   5.546   0.252   1.182
    3TYR     BB  456   5.394   0.044   0.988
    3TYR    SC1  457   5.228   0.224   0.830
    3TYR    SC2  458   5.103   0.089   0.674
    3TYR    SC3  459   4.906   0.226   0.709
    1TYR     BB  460   2.395   2.751   7.235
    1TYR    SC1  461   2.599   2.711   7.467
    1TYR    SC2  462   2.448   2.601   7.619
    1TYR    SC3  463   2.626   2.453   7.693
    2GLY     BB  464   2.295   2.396   7.313
    3TYR     BB  465   2.092   2.248   7.514
    3TYR    SC1  466   2.276   2.141   7.713
    3TYR    SC2  467   2.146   2.024   7.878
    3TYR    SC3  468   2.313   1.849   7.891
    1TYR     BB  469   7.316   7.962   3.926
    1TYR    SC1  470   7.389   7.874   3.636
    1TYR    SC2  471   7.557   7.713   3.697
    1TYR    SC3  472   7.484   7.564   3.519
    2GLY     BB  473   7.327   7.593   4.001
    3TYR     BB  474   7.552   7.377   4.085
    3TYR    SC1  475   7.588   7.233   3.834
    3TYR    SC2  476   7.755   7.063   3.872
    3TYR    SC3  477   7.629   6.906   3.737
    1TYR     BB  478   0.082   8.171   1.791
    1TYR    SC1  479  -0.053   7.902   1.869
    1TYR    SC2  480   0.130   7.814   1.999
    1TYR    SC3  481  -0.025   7.718   2.159
    2GLY     BB  482   0.189   8.178   2.153
    3TYR     BB  483   0.434   8.064   2.328
    3TYR    SC1  484   0.307   7.841   2.466
    3TYR    SC2  485   0.474   7.737   2.605
    3TYR    SC3  486   0.311   7.706   2.782
    1TYR     BB  487   1.748   2.173   3.620
    1TYR    SC1  488   1.622   1.913   3.505
    1TYR    SC2  489   1.748   1.758   3.640
    1TYR    SC3  490   1.554   1.614   3.663
    2GLY     BB  491   1.705   2.002   3.953
    3TYR     BB  492   1.874   1.797   4.135
    3TYR    SC1  493   1.727   1.549   4.093
    3TYR    SC2  494   1.837   1.377   4.222
    3TYR    SC3  495   1.622   1.284   4.286
    1TYR     BB  496   6.257   7.788   2.659
    1TYR    SC1  497   6.512   7.670   2.792
    1TYR    SC2  498   6.503   7.801   2.994
    1TYR    SC3  499   6.578   7.611   3.125
    2GLY     BB  500   6.106   7.751   3.002
    3TYR     BB  501   6.090   7.926   3.272
    3TYR    SC1  502   6.281   7.787   3.442
    3TYR    SC2  503   6.287   7.902   3.654
    3TYR    SC3  504   6.300   7.690   3.772
    1TYR     BB  505   2.889   4.749   7.518
    1TYR    SC1  506   3.185   4.655   7.542
    1TYR    SC2  507   3.284   4.840   7.423
    1TYR    SC3  508   3.472   4.842   7.576
    2GLY     BB  509   3.029   5.088   7.607
    3TYR     BB  510   3.159   5.337   7.450
    3TYR    SC1  511   3.441   5.306   7.516
    3TYR    SC2  512   3.561   5.484   7.407
    3TYR    SC3  513   3.703   5.511   7.602
    1TYR     BB  514   4.146   8.272   5.870
    1TYR    SC1  515   4.329   8.038   5.779
    1TYR    SC2  516   4.470   8.034   5.974
    1TYR    SC3  517   4.479   7.791   5.966
    2GLY     BB  518   4.146   8.093   6.202
    3TYR     BB  519   4.331   8.087   6.465
    3TYR    SC1  520   4.470   7.833   6.432
    3TYR    SC2  521   4.618   7.806   6.621
    3TYR    SC3  522   4.563   7.570   6.633
    1TYR     BB  523   3.180   2.155   5.255
    1TYR    SC1  524   2.910   2.184   5.408
    1TYR    SC2  525   2.974   2.060   5.604
    1TYR    SC3  526   2.852   2.214   5.746
    2GLY     BB  527   3.334   2.233   5.590
    3TYR     BB  528   3.423   2.067   5.852
    3TYR    SC1  529   3.209   2.136   6.038
    3TYR    SC2  530   3.254   2.022   6.245
    3TYR    SC3  531   3.184   2.217   6.372
    1TYR     BB  532   4.377   3.965   4.351
    1TYR    SC1  533   4.253   4.041   4.626
    1TYR    SC2  534   4.410   3.918   4.762
    1TYR    SC3  535   4.409   4.096   4.928
    2GLY     BB  536   4.706   4.036   4.521
    3TYR     BB  537   4.917   3.873   4.701
    3TYR    SC1  538   4.862   3.982   4.966
    3TYR    SC2  539   5.010   3.873   5.121
    3TYR    SC3  540   5.045   4.082   5.239
    1TYR     BB  541   2.740   3.514   1.763
    1TYR    SC1  542   2.815   3.435   1.472
    1TYR    SC2  543   3.051   3.480   1.490
    1TYR    SC3  544   3.102   3.286   1.352
    2GLY     BB  545   3.048   3.318   1.856
    3TYR     BB  546   3.364   3.376   1.884
    3TYR    SC1  547   3.467   3.248   1.643
    3TYR    SC2  548   3.706   3.279   1.641
    3TYR    SC3  549   3.738   3.053   1.560
    1TYR     BB  550   4.869   7.708   7.413
    1TYR    SC1  551   4.979   7.948   7.577
    1TYR    SC2  552   4.838   7.918   7.770
    1TYR    SC3  553   5.020   7.981   7.918
    2GLY     BB  554   4.891   7.523   7.741
    3TYR     BB  555   4.703   7.479   7.999
    3TYR    SC1  556   4.832   7.653   8.194
    3TYR    SC2  557   4.707   7.637   8.399
    3TYR    SC3  558   4.912   7.638   8.528
    1TYR     BB  559   7.639   1.415   4.389
    1TYR    SC1  560   7.860   1.471   4.601
    1TYR    SC2  561   7.721   1.594   4.755
    1TYR    SC3  562   7.834   1.491   4.944
    2GLY     BB  563   7.425   1.333   4.689
    3TYR     BB  564   7.237   1.495   4.894
    3TYR    SC1  565   7.405   1.502   5.132
    3TYR    SC2  566   7.284   1.621   5.303
    3TYR    SC3  567   7.362   1.464   5.471
    1TYR     BB  568   6.696   6.891   7.225
    1TYR    SC1  569   6.608   7.147   7.070
    1TYR    SC2  570   6.795   7.154   6.918
    1TYR    SC3  571   6.650   7.227   6.738
    2GLY     BB  572   6.774   6.756   6.882
    3TYR     BB  573   7.024   6.763   6.678
    3TYR    SC1  574   6.932   6.955   6.480
    3TYR    SC2  575   7.105   6.978   6.315
    3TYR    SC3  576   6.939   6.986   6.138
    1TYR     BB  577   5.838   5.692   4.725
    1TYR    SC1  578   5.737   5.711   5.019
    1TYR    SC2  579   5.707   5.950   5.023
    1TYR    SC3  580   5.506   5.926   5.158
    2GLY     BB  581   5.557   5.934   4.653
    3TYR     BB  582   5.516   6.253   4.656
    3TYR    SC1  583   5.360   6.289   4.900
    3TYR    SC2  584   5.316   6.524   4.925
    3TYR    SC3  585   5.090   6.477   5.000
    1TYR     BB  586   2.257   0.622   4.276
    1TYR    SC1  587   2.427   0.749   4.048
    1TYR    SC2  588   2.616   0.600   4.067
    1TYR    SC3  589   2.642   0.598   3.825
    2GLY     BB  590   2.364   0.295   4.122
    3TYR     BB  591   2.614   0.094   4.148
    3TYR    SC1  592   2.759   0.151   3.901
    3TYR    SC2  593   2.954   0.010   3.898
    3TYR    SC3  594   2.925  -0.030   3.660
    1TYR     BB  595   4.602   4.168   2.917
    1TYR    SC1  596   4.848   4.321   3.031
    1TYR    SC2  597   4.916   4.423   2.824
    1TYR    SC3  598   4.977   4.627   2.940
    2GLY     BB  599   4.533   4.491   2.735
    3TYR     BB  600   4.622   4.627   2.457
    3TYR    SC1  601   4.812   4.828   2.550
    3TYR    SC2  602   4.894   4.945   2.357
    3TYR    SC3  603   4.886   5.156   2.477
    1TYR     BB  604   4.246   2.119   0.681
    1TYR    SC1  605   4.130   2.329   0.483
    1TYR    SC2  606   4.287   2.289   0.304
    1TYR    SC3  607   4.111   2.318   0.139
    2GLY     BB  608   4.264   1.897   0.378
    3TYR     BB  609   4.474   1.841   0.140
    3TYR    SC1  610   4.346   1.978  -0.083
    3TYR    SC2  611   4.487   1.950  -0.276
    3TYR    SC3  612   4.292   1.918  -0.418
    1TYR     BB  613   1.613   2.331   4.970
    1TYR    SC1  614   1.822   2.562   4.967
    1TYR    SC2  615   1.882   2.549   5.200
    1TYR    SC3  616   2.114   2.595   5.146
    2GLY     BB  617   1.873   2.150   5.176
    3TYR     BB  618   1.953   2.130   5.487
    3TYR    SC1  619   2.195   2.292   5.494
    3TYR    SC2  620   2.275   2.293   5.721
    3TYR    SC3  621   2.505   2.275   5.643
    1TYR     BB  622   6.033   5.337   3.000
    1TYR    SC1  623   6.292   5.169   2.960
    1TYR    SC2  624   6.435   5.352   2.895
    1TYR    SC3  625   6.620   5.255   3.018
    2GLY     BB  626   6.262   5.580   3.174
    3TYR     BB  627   6.452   5.826   3.088
    3TYR    SC1  628   6.716   5.705   3.109
    3TYR    SC2  629   6.878   5.873   3.048
    3TYR    SC3  630   7.026   5.798   3.225
    1TYR     BB  631   6.478   5.860   1.467
    1TYR    SC1  632   6.286   5.620   1.515
    1TYR    SC2  633   6.089   5.722   1.421
    1TYR    SC3  634   6.022   5.510   1.323
    2GLY     BB  635   6.314   5.876   1.128
    3TYR     BB  636   6.052   6.014   1.000
    3TYR    SC1  637   5.875   5.785   0.973
    3TYR    SC2  638   5.668   5.864   0.878
    3TYR    SC3  639   5.653   5.665   0.739
    1TYR     BB  640   6.856   4.777  -0.181
    1TYR    SC1  641   6.565   4.679  -0.128
    1TYR    SC2  642   6.617   4.531   0.054
    1TYR    SC3  643   6.413   4.595   0.169
    2GLY     BB  644   6.876   4.802   0.194
    3TYR     BB  645   6.948   4.606   0.440
    3TYR    SC1  646   6.683   4.552   0.549
    3TYR    SC2  647   6.711   4.404   0.737
    3TYR    SC3  648   6.542   4.526   0.862
    1TYR     BB  649   2.182   1.652   0.643
    1TYR    SC1  650   2.053   1.472   0.861
    1TYR    SC2  651   1.950   1.649   0.987
    1TYR    SC3  652   1.755   1.509   1.029
    2GLY     BB  653   1.848   1.827   0.644
    3TYR     BB  654   1.709   2.065   0.810
    3TYR    SC1  655   1.527   1.916   0.983
    3TYR    SC2  656   1.409   2.076   1.119
    3TYR    SC3  657   1.204   1.949   1.095
    1TYR     BB  658   1.213   4.971   4.477
    1TYR    SC1  659   1.213   4.666   4.536
    1TYR    SC2  660   1.449   4.644   4.578
    1TYR    SC3  661   1.406   4.485   4.756
    2GLY     BB  662   1.440   4.991   4.777
    3TYR     BB  663   1.756   4.965   4.835
    3TYR    SC1  664   1.771   4.701   4.956
    3TYR    SC2  665   2.002   4.658   5.009
    3TYR    SC3  666   1.938   4.554   5.219
    1TYR     BB  667   0.341   6.409   1.582
    1TYR    SC1  668   0.429   6.639   1.772
    1TYR    SC2  669   0.620   6.527   1.866
    1TYR    SC3  670   0.746   6.735   1.867
    2GLY     BB  671   0.709   6.384   1.503
    3TYR     BB  672   0.965   6.233   1.626
    3TYR    SC1  673   1.103   6.452   1.759
    3TYR    SC2  674   1.302   6.362   1.860
    3TYR    SC3  675   1.428   6.559   1.795
    1TYR     BB  676   0.828   8.150   5.463
    1TYR    SC1  677   0.829   7.846   5.527
    1TYR    SC2  678   0.602   7.802   5.462
    1TYR    SC3  679   0.666   7.587   5.368
    2GLY     BB  680   0.649   8.044   5.148
    3TYR     BB  681   0.345   7.987   5.059
    3TYR    SC1  682   0.342   7.696   5.048
    3TYR    SC2  683   0.120   7.628   4.983
    3TYR    SC3  684   0.212   7.454   4.841
    1TYR     BB  685   4.339   7.053   4.500
    1TYR    SC1  686   4.556   6.973   4.707
    1TYR    SC2  687   4.663   7.188   4.722
    1TYR    SC3  688   4.697   7.158   4.960
    2GLY     BB  689   4.303   7.362   4.713
    3TYR     BB  690   4.443   7.651   4.732
    3TYR    SC1  691   4.609   7.619   4.970
    3TYR    SC2  692   4.727   7.826   5.005
    3TYR    SC3  693   4.694   7.807   5.245
    1TYR     BB  694   7.745   7.682   5.616
    1TYR    SC1  695   7.924   7.592   5.378
    1TYR    SC2  696   7.745   7.510   5.238
    1TYR    SC3  697   7.857   7.597   5.040
    2GLY     BB  698   7.523   7.824   5.347
    3TYR     BB  699   7.282   7.717   5.161
    3TYR    SC1  700   7.418   7.688   4.905
    3TYR    SC2  701   7.255   7.607   4.746
    3TYR    SC3  702   7.346   7.753   4.574
    1TYR     BB  703   5.877   0.114   6.268
    1TYR    SC1  704   5.757  -0.132   6.415
    1TYR    SC2  705   5.881  -0.107   6.619
    1TYR    SC3  706   5.688  -0.176   6.749
    2GLY     BB  707   5.827   0.288   6.598
    3TYR     BB  708   5.993   0.325   6.872
    3TYR    SC1  709   5.850   0.144   7.050
    3TYR    SC2  710   5.958   0.154   7.265
    3TYR    SC3  711   5.742   0.147   7.377
    1TYR     BB  712   6.996   0.541   0.591
    1TYR    SC1  713   6.891   0.690   0.339
    1TYR    SC2  714   6.715   0.812   0.449
    1TYR    SC3  715   6.759   1.006   0.310
    2GLY     BB  716   6.960   0.877   0.758
    3TYR     BB  717   6.726   1.041   0.907
    3TYR    SC1  718   6.655   1.238   0.704
    3TYR    SC2  719   6.479   1.375   0.794
    3TYR    SC3  720   6.578   1.573   0.695
    1TYR     BB  721   1.145   6.826   5.429
    1TYR    SC1  722   1.291   6.724   5.174
    1TYR    SC2  723   1.180   6.511   5.161
    1TYR    SC3  724   1.173   6.527   4.918
    2GLY     BB  725   0.837   6.690   5.261
    3TYR     BB  726   0.684   6.407   5.243
    3TYR    SC1  727   0.757   6.320   4.975
    3TYR    SC2  728   0.653   6.106   4.937
    3TYR    SC3  729   0.600   6.168   4.709
    1TYR     BB  730   3.552   3.069   4.173
    1TYR    SC1  731   3.623   2.820   4.001
    1TYR    SC2  732   3.492   2.880   3.808
    1TYR    SC3  733   3.664   2.793   3.660
    2GLY     BB  734   3.609   3.260   3.852
    3TYR     BB  735   3.435   3.343   3.594
    3TYR    SC1  736   3.537   3.157   3.394
    3TYR    SC2  737   3.419   3.200   3.189
    3TYR    SC3  738   3.624   3.170   3.061
    1TYR     BB  739   2.965   7.955   2.886
    1TYR    SC1  740   2.847   8.204   2.742
    1TYR    SC2  741   2.971   8.181   2.537
    1TYR    SC3  742   2.779   8.253   2.408
    2GLY     BB  743   2.913   7.785   2.553
    3TYR     BB  744   3.079   7.751   2.279
    3TYR    SC1  745   2.938   7.935   2.103
    3TYR    SC2  746   3.046   7.927   1.888
    3TYR    SC3  747   2.831   7.937   1.776
    1TYR     BB  748   4.865   0.615   3.702
    1TYR    SC1  749   4.724   0.713   3.443
    1TYR    SC2  750   4.580   0.522   3.414
    1TYR    SC3  751   4.399   0.666   3.339
    2GLY     BB  752   4.517   0.517   3.809
    3TYR     BB  753   4.324   0.262   3.775
    3TYR    SC1  754   4.135   0.360   3.575
    3TYR    SC2  755   3.978   0.183   3.531
    3TYR    SC3  756   3.796   0.343   3.522
    1TYR     BB  757   5.947   3.441   1.434
    1TYR    SC1  758   5.964   3.691   1.618
    1TYR    SC2  759   5.836   3.601   1.801
    1TYR    SC3  760   5.982   3.710   1.962
    2GLY     BB  761   6.021   3.250   1.751
    3TYR     BB  762   5.851   3.126   1.995
    3TYR    SC1  763   5.907   3.318   2.207
    3TYR    SC2  764   5.789   3.246   2.404
    3TYR    SC3  765   5.978   3.307   2.544
    1TYR     BB  766   3.520   3.558   8.459
    1TYR    SC1  767   3.666   3.347   8.283
    1TYR    SC2  768   3.469   3.257   8.177
    1TYR    SC3  769   3.589   3.234   7.967
    2GLY     BB  770   3.323   3.628   8.146
    3TYR     BB  771   3.059   3.510   8.003
    3TYR    SC1  772   3.175   3.356   7.785
    3TYR    SC2  773   2.994   3.256   7.662
    3TYR    SC3  774   3.108   3.301   7.452
    1TYR     BB  775   4.213   4.134   8.407
    1TYR    SC1  776   4.273   3.896   8.216
    1TYR    SC2  777   4.171   3.991   8.020
    1TYR    SC3  778   4.347   3.898   7.880
    2GLY     BB  779   4.326   4.346   8.117
    3TYR     BB  780   4.191   4.476   7.854
    3TYR    SC1  781   4.291   4.300   7.645
    3TYR    SC2  782   4.202   4.378   7.436
    3TYR    SC3  783   4.414   4.334   7.326
    1TYR     BB  784   3.752   2.609   3.190
    1TYR    SC1  785   3.802   2.305   3.146
    1TYR    SC2  786   3.617   2.266   2.998
    1TYR    SC3  787   3.751   2.112   2.866
    2GLY     BB  788   3.694   2.614   2.817
    3TYR     BB  789   3.446   2.564   2.617
    3TYR    SC1  790   3.511   2.301   2.511
    3TYR    SC2  791   3.336   2.240   2.356
    3TYR    SC3  792   3.500   2.144   2.204
    1TYR     BB  793   6.631   7.802   1.451
    1TYR    SC1  794   6.356   7.928   1.522
    1TYR    SC2  795   6.244   7.869   1.317
    1TYR    SC3  796   6.039   7.822   1.439
    2GLY     BB  797   6.425   7.512   1.327
    3TYR     BB  798   6.276   7.430   1.053
    3TYR    SC1  799   5.997   7.479   1.123
    3TYR    SC2  800   5.864   7.424   0.930
    3TYR    SC3  801   5.695   7.323   1.072
    1TYR     BB  802   0.905   4.847   1.513
    1TYR    SC1  803   1.195   4.942   1.575
    1TYR    SC2  804   1.249   5.015   1.352
    1TYR    SC3  805   1.373   5.204   1.442
    2GLY     BB  806   0.882   5.170   1.319
    3TYR     BB  807   0.952   5.270   1.021
    3TYR    SC1  808   1.195   5.423   1.067
    3TYR    SC2  809   1.268   5.509   0.855
    3TYR    SC3  810   1.329   5.720   0.958
    1TYR     BB  811   7.046   3.277  -0.026
    1TYR    SC1  812   6.919   3.561  -0.021
    1TYR    SC2  813   6.790   3.531   0.180
    1TYR    SC3  814   6.837   3.760   0.248
    2GLY     BB  815   7.099   3.336   0.343
    3TYR     BB  816   6.929   3.294   0.614
    3TYR    SC1  817   6.852   3.568   0.675
    3TYR    SC2  818   6.721   3.563   0.877
    3TYR    SC3  819   6.830   3.766   0.956
    1TYR     BB  820   3.279   4.289   1.225
    1TYR    SC1  821   3.174   4.077   1.427
    1TYR    SC2  822   3.355   3.919   1.399
    1TYR    SC3  823   3.350   3.868   1.637
    2GLY     BB  824   3.613   4.224   1.389
    3TYR     BB  825   3.856   4.016   1.352
    3TYR    SC1  826   3.814   3.839   1.579
    3TYR    SC2  827   3.987   3.671   1.573
    3TYR    SC3  828   4.010   3.682   1.815
    1TYR     BB  829   7.060   0.762   2.539
    1TYR    SC1  830   6.824   0.581   2.448
    1TYR    SC2  831   6.791   0.683   2.233
    1TYR    SC3  832   6.744   0.466   2.134
    2GLY     BB  833   7.187   0.708   2.188
    3TYR     BB  834   7.145   0.845   1.900
    3TYR    SC1  835   6.972   0.650   1.768
    3TYR    SC2  836   6.926   0.733   1.547
    3TYR    SC3  837   6.946   0.508   1.456
    1TYR     BB  838   1.991   2.625   1.793
    1TYR    SC1  839   2.052   2.699   2.088
    1TYR    SC2  840   2.042   2.938   2.061
    1TYR    SC3  841   1.935   2.962   2.277
    2GLY     BB  842   1.726   2.893   1.820
    3TYR     BB  843   1.711   3.212   1.781
    3TYR    SC1  844   1.700   3.303   2.058
    3TYR    SC2  845   1.688   3.543   2.055
    3TYR    SC3  846   1.529   3.541   2.238
    1TYR     BB  847   2.815   5.815   2.346
    1TYR    SC1  848   3.115   5.738   2.376
    1TYR    SC2  849   3.196   5.869   2.191
    1TYR    SC3  850   3.396   5.927   2.316
    2GLY     BB  851   2.948   6.164   2.296
    3TYR     BB  852   3.055   6.341   2.050
    3TYR    SC1  853   3.342   6.338   2.098
    3TYR    SC2  854   3.447   6.467   1.923
    3TYR    SC3  855   3.602   6.563   2.082
    1TYR     BB  856   3.974   0.370   1.663
    1TYR    SC1  857   3.910   0.298   1.367
    1TYR    SC2  858   4.053   0.464   1.266
    1TYR    SC3  859   4.115   0.308   1.090
    2GLY     BB  860   4.331   0.386   1.543
    3TYR     BB  861   4.524   0.608   1.410
    3TYR    SC1  862   4.532   0.518   1.133
    3TYR    SC2  863   4.672   0.671   1.011
    3TYR    SC3  864   4.769   0.487   0.886
    1TYR     BB  865   2.734   1.458   5.540
    1TYR    SC1  866   2.991   1.364   5.392
    1TYR    SC2  867   2.881   1.221   5.232
    1TYR    SC3  868   3.038   1.290   5.059
    2GLY     BB  869   2.593   1.496   5.191
    3TYR     BB  870   2.445   1.307   4.977
    3TYR    SC1  871   2.659   1.258   4.786
    3TYR    SC2  872   2.570   1.117   4.612
    3TYR    SC3  873   2.691   1.243   4.443
    1TYR     BB  874   2.412   3.142   4.946
    1TYR    SC1  875   2.295   2.907   5.114
    1TYR    SC2  876   2.139   3.038   5.242
    1TYR    SC3  877   1.975   2.860   5.231
    2GLY     BB  878   2.051   3.247   4.912
    3TYR     BB  879   1.842   3.425   5.081
    3TYR    SC1  880   1.674   3.217   5.199
    3TYR    SC2  881   1.506   3.327   5.333
    3TYR    SC3  882   1.338   3.169   5.258
    1TYR     BB  883   3.990   5.655   6.623
    1TYR    SC1  884   3.683   5.671   6.574
    1TYR    SC2  885   3.678   5.900   6.501
    1TYR    SC3  886   3.508   5.846   6.336
    2GLY     BB  887   4.013   5.836   6.293
    3TYR     BB  888   4.009   6.142   6.193
    3TYR    SC1  889   3.741   6.161   6.079
    3TYR    SC2  890   3.713   6.386   5.996
    3TYR    SC3  891   3.596   6.302   5.801
    1TYR     BB  892   0.620   7.259   2.944
    1TYR    SC1  893   0.315   7.309   2.981
    1TYR    SC2  894   0.326   7.380   3.211
    1TYR    SC3  895   0.154   7.547   3.170
    2GLY     BB  896   0.658   7.587   3.127
    3TYR     BB  897   0.674   7.683   3.434
    3TYR    SC1  898   0.409   7.798   3.472
    3TYR    SC2  899   0.396   7.879   3.699
    3TYR    SC3  900   0.275   8.076   3.625
    4W        W  901   0.349   1.633   2.100
    5W        W  902   4.010   5.867   1.494
    6W        W  903   5.106   7.621   1.686
    7W        W  904   3.772   4.299   0.403
    8W        W  905   5.683   0.072   4.002
    9W        W  906   3.484   7.360   2.147
   10W        W  907   2.537   3.319   3.106
   11W        W  908   3.102   5.951   3.455
   12W        W  909   3.373   7.676   5.025
   13W        W  910   3.635   6.731   2.684
   14W        W  911   3.112   3.406   6.189
   15W        W  912   3.682   2.669   5.460
   16W        W  913   0.928   6.753   6.162
   17W        W  914   2.972   7.428   4.929
   18W        W  915   6.117   6.459   3.240
   19W        W  916   7.256   3.126   1.905
   20W        W  917   3.548   2.037   0.913
   21W        W  918   4.614   4.267   3.949
   22W        W  919   4.204   3.886   1.026
   23W        W  920   3.255   5.763   3.879
   24W        W  921   5.594   4.501   0.154
   25W        W  922   3.957   5.410   1.281
   26W        W  923   0.331   3.089   3.924
   27W        W  924   1.975   6.238   5.081
   28W        W  925   2.937   0.037   5.008
   29W        W  926   1.453   4.276   3.805
   30W        W  927   0.429   6.932   3.776
   31W        W  928   2.769   0.900   5.002
   32W        W  929   1.095   7.587   5.519
   33W        W  930   7.929   1.101   3.258
   34W        W  931   0.180   4.842   4.244
   35W        W  932   6.949   4.572   2.275
   36W        W  933   7.654   6.841   5.972
   37W        W  934   3.181   1.827   1.211
   38W        W  935   4.354   0.291   4.467
   39W        W  936   3.860   6.313   1.114
   40W        W  937   3.430   4.024   2.538
   41W        W  938   2.630   7.135   2.585
   42W        W  939   1.440   7.637   5.136
   43W        W  940   5.533   0.490   3.665
   44W        W  941   7.517   7.177   2.175
   45W        W  942   3.736   4.560   6.753
   46W        W  943   7.851   2.797   3.902
   47W        W  944   4.599   2.116   6.133
   48W        W  945   5.681   4.462   4.970
   49W        W  946   4.819   6.067   6.364
   50W        W  947   0.606   2.177   6.213
   51W        W  948   4.639   0.850   7.747
   52W        W  949   1.119   5.630   1.968
   53W        W  950   1.180   3.272   4.125
   54W        W  951   3.481   0.246   1.393
   55W        W  952   1.407   0.692   3.619
   56W        W  953   1.602   2.575   3.865
   57W        W  954   3.987   7.321   3.032
   58W        W  955   1.242   7.332   1.453
   59W        W  956   1.855   6.457   3.898
   60W        W  957   5.253   5.959   0.677
   61W        W  958   6.449   1.641   4.888
   62W        W  959   0.387   1.607   7.962
   63W        W  960   1.261   6.947   0.428
   64W        W  961   2.307   7.508   1.384
   65W        W  962   6.442   3.540   3.828
   66W        W  963   3.367   3.532   4.367
   67W        W  964   3.230   4.191   0.394
   68W        W  965   4.803   0.282   2.107
   69W        W  966   6.619   6.519   2.671
   70W        W  967   7.309   0.266   0.194
   71W        W  968   3.211   0.699   7.320
   72W        W  969   6.292   0.807   0.486
   73W        W  970   7.424   3.158   0.769
   74W        W  971   5.880   5.100   7.157
   75W        W  972   5.937   5.515   6.608
   76W        W  973   1.608   1.490   1.416
   77W        W  974   0.024   0.654   7.928
   78W        W  975   5.349   6.095   3.993
   79W        W  976   1.816   2.172   7.150
   80W        W  977   5.173   2.658   1.706
   81W        W  978   6.188   7.690   0.733
   82W        W  979   1.268   4.458   2.892
   83W        W  980   0.819   0.266   0.956
   84W        W  981   1.797   0.656   7.022
   85W        W  982   5.650   7.086   2.695
   86W        W  983   6.056   5.766   5.520
   87W        W  984   7.915   3.693   5.877
   88W        W  985   2.142   3.523   0.605
   89W        W  986   5.241   5.224   4.271
   90W        W  987   2.032   0.198   0.976
   91W        W  988   5.922   4.214   1.251
   92W        W  989   2.383   2.228   2.244
   93W        W  990   0.546   4.305   3.982
   94W        W  991   6.496   5.044   1.240
   95W        W  992   0.275   5.572   1.494
   96W        W  993   7.405   3.890   1.145
   97W        W  994   3.714   5.802   5.639
   98W        W  995   0.394   3.751   3.247
   99W        W  996   6.165   6.953   1.111
  100W        W  997   7.728   0.116   7.149
  101W        W  998   2.906   4.490   0.247
  102W        W  999   3.678   0.463   4.635
  103W        W 1000   3.544   5.250   4.852
  104W        W 1001   7.724   7.128   1.245
  105W        W 1002   0.266   3.307   6.067
  106W        W 1003   0.569   2.820   0.459
  107W        W 1004   5.281   7.196   5.432
  108W        W 1005   1.384   0.021   3.146
  109W        W 1006   0.853   7.400   1.141
  110W        W 1007   2.052   0.513   6.055
  111W        W 1008   3.922   2.298   4.099
  112W        W 1009   0.770   0.423   0.434
  113W        W 1010   2.607   7.020   6.969
  114W        W 1011   2.810   7.885   0.487
  115W        W 1012   3.742   4.648   2.876
  116W        W 1013   2.552   4.984   3.352
  117W        W 1014   2.997   4.317   1.667
  118W        W 1015   1.083   6.169   5.039
  119W        W 1016   6.865   3.091   5.000
  120W        W 1017   3.990   4.941   5.149
  121W        W 1018   5.907   7.058   7.581
  122W        W 1019   3.354   0.720   1.981
  123W        W 1020   6.021   3.539   3.652
  124W        W 1021   2.808   2.563   2.111
  125W        W 1022   4.883   2.466   7.680
  126W        W 1023   7.565   5.936   3.753
  127W        W 1024   4.262   7.625   6.543
  128W        W 1025   4.190   2.869   5.895
  129W        W 1026   7.276   5.425   2.118
  130W        W 1027   6.424   7.762   5.954
  131W        W 1028   2.332   2.230   1.251
  132W        W 1029   0.846   5.585   3.603
  133W        W 1030   3.830   6.778   4.809
  134W        W 1031   4.457   1.760   0.882
  135W        W 1032   1.068   1.917   5.980
  136W        W 1033   5.990   6.957   3.045
  137W        W 1034   3.216   4.376   2.811
  138W        W 1035   0.845   5.393   2.613
  139W        W 1036   3.555   4.534   2.444
  140W        W 1037   4.290   5.252   2.235
  141W        W 1038   2.818   0.909   4.513
  142W        W 1039   7.292   5.438   1.135
  143W        W 1040   4.900   2.969   1.462
  144W        W 1041   4.043   3.164   1.239
  145W        W 1042   2.314   6.966   3.819
  146W        W 1043   3.631   5.801   0.429
  147W        W 1044   6.190   6.168   2.866
  148W        W 1045   0.307   4.777   6.065
  149W        W 1046   0.049   0.664   0.817
  150W        W 1047   0.564   4.822   1.825
  151W        W 1048   4.805   5.036   6.253
  152W        W 1049   3.710   7.655   3.799
  153W        W 1050   7.245   2.690   7.612
  154W        W 1051   4.274   3.116   2.080
  155W        W 1052   0.018   3.626   5.211
  156W        W 1053   7.280   1.793   5.959
  157W        W 1054   0.505   5.802   6.467
  158W        W 1055   1.273   0.657   6.567
  159W        W 1056   4.013   7.430   1.986
  160W        W 1057   6.418   3.571   0.115
  161W        W 1058   1.334   5.273   7.004
  162W        W 1059   5.923   0.865   0.157
  163W        W 1060   2.861   6.097   1.457
  164W        W 1061   2.192   5.954   2.613
  165W        W 1062   3.774   1.376   4.335
  166W        W 1063   3.678   3.672   0.904
  167W        W 1064   7.741   0.449   0.390
  168W        W 1065   2.608   7.013   1.645
  169W        W 1066   6.769   5.310   0.874
  170W        W 1067   6.324   2.586   2.869
  171W        W 1068   6.121   1.236   7.826
  172W        W 1069   7.235   4.956   6.943
  173W        W 1070   3.061   4.133   3.268
  174W        W 1071   7.603   5.308   4.528
  175W        W 1072   5.208   1.841   7.851
  176W        W 1073   4.545   3.698   6.398
  177W        W 1074   3.100   4.999   4.788
  178W        W 1075   5.971   3.294   4.615
  179W        W 1076   2.201   3.642   2.003
  180W        W 1077   1.229   1.111   5.164
  181W        W 1078   1.495   6.815   1.374
  182W        W 1079   0.800   1.759   3.437
  183W        W 1080   3.677   4.566   4.058
  184W        W 1081   3.060   1.377   1.006
  185W        W 1082   6.225   4.142   0.710
  186W        W 1083   7.406   4.118   1.879
  187W        W 1084   2.654   3.201   0.720
  188W        W 1085   1.345   2.618   2.437
  189W        W 1086   0.190   2.337   5.226
  190W        W 1087   2.368   0.020   4.519
  191W        W 1088   2.731   6.631   0.322
  192W        W 1089   5.736   6.311   2.823
  193W        W 1090   5.285   7.593   5.142
  194W        W 1091   5.973   2.274   4.878
  195W        W 1092   6.196   7.507   4.890
  196W        W 1093   3.485   4.051   4.160
  197W        W 1094   2.242   4.833   0.719
  198W        W 1095   5.497   6.915   4.538
  199W        W 1096   2.980   2.287   7.647
  200W        W 1097   3.681   2.474   1.733
  201W        W 1098   1.186   3.504   2.720
  202W        W 1099   7.495   0.885   7.167
  203W        W 1100   3.843   3.473   5.560
  204W        W 1101   2.179   5.064   7.217
  205W        W 1102   4.348   6.632   6.331
  206W        W 1103   5.498   6.883   4.043
  207W        W 1104   6.524   1.236   6.236
  208W        W 1105   5.849   0.071   4.560
  209W        W 1106   7.408   6.166   4.959
  210W        W 1107   2.499   6.618   5.107
  211W        W 1108   2.303   2.590   3.904
  212W        W 1109   0.907   7.773   0.823
  213W        W 1110   0.171   7.871   4.160
  214W        W 1111   0.862   3.544   6.816
  215W        W 1112   3.565   0.598   0.972
  216W        W 1113   7.556   5.320   3.163
  217W        W 1114   7.566   2.429   7.824
  218W        W 1115   6.247   7.451   7.550
  219W        W 1116   1.325   5.009   3.067
  220W        W 1117   3.618   0.917   3.868
  221W        W 1118   1.347   4.575   1.821
  222W        W 1119   0.626   1.066   4.390
  223W        W 1120   6.745   7.306   0.052
  224W        W 1121   6.058   3.145   0.224
  225W        W 1122   1.682   5.368   1.491
  226W        W 1123   3.664   4.151   3.681
  227W        W 1124   2.867   2.023   2.130
  228W        W 1125   3.002   6.463   5.114
  229W        W 1126   7.841   5.773   4.474
  230W        W 1127   6.988   1.672   0.535
  231W        W 1128   7.317   7.251   0.731
  232W        W 1129   2.995   1.542   6.545
  233W        W 1130   5.791   3.202   6.485
  234W        W 1131   1.278   4.324   5.223
  235W        W 1132   1.768   4.770   0.877
  236W        W 1133   4.800   6.174   2.801
  237W        W 1134   0.995   2.283   0.036
  238W        W 1135   2.434   5.388   4.233
  239W        W 1136   2.627   0.058   3.162
  240W        W 1137   6.572   3.457   4.822
  241W        W 1138   5.078   0.628   5.918
  242W        W 1139   2.301   7.087   5.753
  243W        W 1140   1.257   2.988   3.634
  244W        W 1141   1.958   2.741   4.232
  245W        W 1142   1.209   3.848   3.757
  246W        W 1143   1.171   5.164   0.345
  247W        W 1144   6.131   1.084   5.860
  248W        W 1145   6.559   4.297   3.034
  249W        W 1146   1.930   4.403   3.622
  250W        W 1147   1.653   2.963   7.762
  251W        W 1148   7.497   7.503   2.703
  252W        W 1149   0.845   0.004   1.893
  253W        W 1150   3.685   4.593   1.142
  254W        W 1151   2.903   4.153   4.253
  255W        W 1152   4.763   6.233   1.425
  256W        W 1153   1.429   1.504   5.383
  257W        W 1154   3.548   0.353   4.147
  258W        W 1155   2.900   7.568   1.425
  259W        W 1156   1.022   4.864   2.682
  260W        W 1157   2.301   1.283   3.573
  261W        W 1158   5.328   7.070   1.319
  262W        W 1159   5.922   4.946   4.852
  263W        W 1160   5.659   4.976   2.782
  264W        W 1161   7.641   5.803   3.075
  265W        W 1162   5.314   0.911   3.796
  266W        W 1163   5.943   4.663   6.881
  267W        W 1164   1.579   5.387   0.174
  268W        W 1165   0.846   4.409   1.617
  269W        W 1166   7.103   5.197   3.607
  270W        W 1167   4.036   5.543   3.924
  271W        W 1168   0.108   5.363   5.096
  272W        W 1169   7.672   6.207   4.515
  273W        W 1170   4.218   6.098   3.471
  274W        W 1171   5.229   4.522   7.471
  275W        W 1172   1.375   3.430   1.164
  276W        W 1173   1.671   4.157   5.560
  277W        W 1174   7.044   7.394   2.370
  278W        W 1175   1.383   5.875   3.643
  279W        W 1176   5.422   3.768   7.884
  280W        W 1177   6.533   5.993   5.084
  281W        W 1178   4.435   3.823   1.570
  282W        W 1179   5.675   6.250   7.689
  283W        W 1180   2.804   4.582   3.176
  284W        W 1181   4.244   0.539   5.236
  285W        W 1182   1.353   5.632   0.531
  286W        W 1183   0.524   2.258   3.431
  287W        W 1184   3.545   7.783   0.149
  288W        W 1185   5.677   6.043   5.750
  289W        W 1186   1.742   1.862   7.722
  290W        W 1187   0.114   5.180   2.143
  291W        W 1188   2.731   4.151   6.901
  292W        W 1189   0.422   5.714   0.978
  293W        W 1190   7.841   4.210   2.193
  294W        W 1191   4.992   0.675   6.877
  295W        W 1192   2.805   1.992   3.466
  296W        W 1193   6.557   0.721   1.160
  297W        W 1194   0.535   4.424   3.478
  298W        W 1195   1.979   2.104   6.411
  299W        W 1196   4.588   6.991   0.788
  300W        W 1197   4.848   2.907   0.667
  301W        W 1198   6.939   4.095   0.989
  302W        W 1199   2.481   2.362   6.005
  303W        W 1200   6.224   0.691   6.822
  304W        W 1201   0.632   3.857   7.284
  305W        W 1202   1.758   0.699   6.406
  306W        W 1203   0.524   7.235   5.057
  307W        W 1204   6.416   6.936   7.574
  308W        W 1205   7.141   6.937   4.678
  309W        W 1206   4.635   4.146   6.694
  310W        W 1207   5.425   3.722   2.390
  311W        W 1208   6.697   4.696   3.271
  312W        W 1209   5.016   5.636   1.548
  313W        W 1210   1.617   1.242   2.597
  314W        W 1211   2.148   5.449   2.572
  315W        W 1212   3.105   0.486   4.764
  316W        W 1213   4.110   0.556   3.277
  317W        W 1214   7.241   7.263   5.065
  318W        W 1215   6.899   1.528   7.660
  319W        W 1216   5.704   5.121   3.873
  320W        W 1217   0.520   2.210   6.938
  321W        W 1218   7.000   5.390   5.643
  322W        W 1219   2.837   5.883   7.389
  323W        W 1220   7.173   3.649   0.718
  324W        W 1221   6.816   7.096   0.521
  325W        W 1222   4.889   1.207   6.940
  326W        W 1223   6.705   3.832   0.546
  327W        W 1224   6.985   6.398   1.029
  328W        W 1225   1.004   5.143   2.218
  329W        W 1226   5.003   2.040   3.247
  330W        W 1227   2.133   6.592   5.974
  331W        W 1228   0.997   2.101   5.539
  332W        W 1229   1.283   4.261   2.374
  333W        W 1230   6.342   1.268   6.690
  334W        W 1231   1.301   6.551   2.309
  335W        W 1232   0.777   1.492   0.827
  336W        W 1233   2.547   1.040   6.531
  337W        W 1234   3.382   1.587   2.877
  338W        W 1235   6.076   0.833   5.340
  339W        W 1236   2.768   3.633   7.114
  340W        W 1237   7.273   3.416   1.170
  341W        W 1238   6.681   7.391   7.347
  342W        W 1239   5.999   6.606   7.491
  343W        W 1240   1.627   0.717   2.411
  344W        W 1241   0.098   2.832   0.606
  345W        W 1242   2.497   5.124   1.054
  346W        W 1243   5.911   3.237   3.193
  347W        W 1244   7.768   3.432   4.713
  348W        W 1245   4.981   5.828   7.675
  349W        W 1246   4.575   2.868   4.304
  350W        W 1247   4.481   7.411   7.134
  351W        W 1248   2.646   5.930   6.748
  352W        W 1249   6.496   1.454   1.899
  353W        W 1250   5.321   1.660   3.240
  354W        W 1251   4.818   5.202   6.966
  355W        W 1252   5.537   3.717   0.458
  356W        W 1253   4.323   2.836   0.552
  357W        W 1254   4.573   1.429   2.257
  358W        W 1255   7.326   2.967   4.964
  359W        W 1256   4.214   5.143   5.601
  360W        W 1257   5.152   1.309   0.457
  361W        W 1258   4.337   3.721   2.079
  362W        W 1259   2.805   0.133   5.663
  363W        W 1260   2.413   5.702   5.113
  364W        W 1261   2.356   4.649   0.183
  365W        W 1262   2.193   3.020   0.659
  366W        W 1263   3.073   3.541   4.860
  367W        W 1264   7.972   4.131   5.298
  368W        W 1265   6.039   6.093   7.368
  369W        W 1266   7.456   5.787   1.422
  370W        W 1267   5.332   1.206   5.178
  371W        W 1268   5.119   3.721   2.772
  372W        W 1269   7.500   3.732   7.005
  373W        W 1270   4.362   4.703   3.421
  374W        W 1271   4.862   0.087   1.302
  375W        W 1272   1.016   1.658   3.062
  376W        W 1273   6.397   4.930   5.059
  377W        W 1274   4.367   0.630   6.638
  378W        W 1275   0.573   6.303   0.535
  379W        W 1276   1.921   5.198   1.019
  380W        W 1277   7.573   0.969   0.532
  381W        W 1278   5.668   7.368   6.679
  382W        W 1279   0.892   2.859   2.310
  383W        W 1280   1.603   4.785   3.774
  384W        W 1281   7.206   6.744   0.661
  385W        W 1282   6.934   1.523   1.598
  386W        W 1283   6.265   3.953   2.164
  387W        W 1284   3.423   1.148   3.498
  388W        W 1285   0.241   3.307   1.316
  389W        W 1286   0.183   1.030   1.247
  390W        W 1287   5.192   6.883   7.365
  391W        W 1288   5.184   4.770   1.939
  392W        W 1289   1.362   4.615   3.381
  393W        W 1290   5.576   7.464   1.775
  394W        W 1291   1.752   2.802   3.190
  395W        W 1292   0.058   2.030   4.773
  396W        W 1293   2.681   4.176   7.386
  397W        W 1294   6.379   5.864   6.323
  398W        W 1295   1.168   3.771   4.365
  399W        W 1296   0.615   1.893   5.790
  400W        W 1297   3.021   6.917   3.273
  401W        W 1298   2.204   3.416   0.101
  402W        W 1299   7.823   1.835   5.082
  403W        W 1300   3.953   1.633   4.995
  404W        W 1301   6.228   2.115   7.354
  405W        W 1302   0.166   5.804   4.064
  406W        W 1303   2.339   0.609   0.742
  407W        W 1304   3.541   1.808   0.365
  408W        W 1305   0.928   1.731   3.962
  409W        W 1306   7.648   1.659   2.228
  410W        W 1307   2.513   1.885   7.289
  411W        W 1308   2.496   1.095   3.080
  412W        W 1309   0.595   3.849   4.288
  413W        W 1310   6.042   1.134   3.217
  414W        W 1311   3.435   2.324   4.412
  415W        W 1312   4.477   3.244   7.145
  416W        W 1313   2.804   5.000   7.134
  417W        W 1314   5.180   3.234   1.965
  418W        W 1315   0.566   6.664   5.754
  419W        W 1316   3.374   6.613   3.132
  420W        W 1317   7.344   7.811   6.781
  421W        W 1318   0.731   3.864   1.693
  422W        W 1319   7.213   1.344   6.940
  423W        W 1320   0.737   2.109   1.248
  424W        W 1321   6.718   4.841   6.852
  425W        W 1322   4.272   7.015   3.315
  426W        W 1323   5.310   2.779   5.362
  427W        W 1324   2.167   5.026   7.731
  428W        W 1325   6.254   6.507   4.976
  429W        W 1326   0.761   1.889   0.418
  430W        W 1327   2.568   3.468   6.353
  431W        W 1328   7.669   4.637   0.673
  432W        W 1329   6.150   4.390   4.087
  433W        W 1330   4.450   6.418   4.240
  434W        W 1331   4.959   3.917   5.607
  435W        W 1332   6.680   1.515   3.000
  436W        W 1333   0.909   0.784   7.552
  437W        W 1334   1.139   0.905   1.385
  438W        W 1335   5.608   4.952   0.798
  439W        W 1336   1.467   5.549   4.738
  440W        W 1337   2.707   0.257   1.550
  441W        W 1338   7.276   2.491   0.280
  442W        W 1339   1.401   0.343   7.024
  443W        W 1340   5.050   7.122   0.900
  444W        W 1341   1.652   5.783   5.755
  445W        W 1342   3.212   4.240   6.956
  446W        W 1343   6.014   3.418   5.597
  447W        W 1344   5.090   3.496   3.901
  448W        W 1345   5.933   7.313   7.178
  449W        W 1346   0.423   3.184   2.254
  450W        W 1347   5.206   1.158   3.101
  451W        W 1348   7.671   3.454   3.286
  452W        W 1349   0.360   0.848   7.618
  453W        W 1350   3.274   1.647   2.093
  454W        W 1351   1.492   2.380   7.774
  455W        W 1352   5.842   1.869   0.596
  456W        W 1353   6.914   3.731   3.693
  457W        W 1354   6.665   6.398   5.403
  458W        W 1355   7.928   0.867   6.951
  459W        W 1356   4.297   1.466   3.131
  460W        W 1357   6.904   5.757   2.450
  461W        W 1358   0.487   6.888   0.434
  462W        W 1359   3.069   3.815   3.953
  463W        W 1360   2.757   4.564   4.506
  464W        W 1361   0.201   7.539   6.349
  465W        W 1362   1.409   7.471   2.213
  466W        W 1363   2.859   1.881   4.174
  467W        W 1364   0.198   1.316   1.688
  468W        W 1365   2.427   3.180   2.033
  469W        W 1366   6.265   7.347   0.304
  470W        W 1367   7.092   2.642   5.770
  471W        W 1368   2.646   2.891   3.764
  472W        W 1369   2.531   3.557   4.853
  473W        W 1370   6.769   2.803   5.426
  474W        W 1371   1.299   3.182   0.545
  475W        W 1372   1.273   1.200   2.197
  476W        W 1373   7.412   3.771   5.062
  477W        W 1374   0.548   4.539   4.546
  478W        W 1375   0.391   3.199   3.101
  479W        W 1376   4.249   7.158   6.207
  480W        W 1377   4.071   4.230   5.690
  481W        W 1378   3.950   2.589   7.550
  482W        W 1379   1.247   5.733   2.433
  483W        W 1380   4.685   3.375   1.712
  484W        W 1381   2.995   7.596   5.450
  485W        W 1382   4.314   4.547   4.889
  486W        W 1383   4.688   3.956   2.447
  487W        W 1384   6.934   7.511   5.920
  488W        W 1385   5.246   2.577   1.201
  489W        W 1386   2.135   5.526   1.287
  490W        W 1387   0.639   4.149   1.266
  491W        W 1388   7.077   6.869   0.119
  492W        W 1389   6.566   3.867   3.310
  493W        W 1390   2.219   2.691   5.617
  494W        W 1391   2.555   5.326   7.457
  495W        W 1392   5.703   3.147   5.174
  496W        W 1393   6.534   2.133   3.736
  497W        W 1394   2.697   7.460   4.056
  498W        W 1395   4.633   0.642   4.197
  499W        W 1396   3.496   3.235   4.749
  500W        W 1397   2.983   1.256   3.038
  501W        W 1398   5.067   6.904   3.109
  502W        W 1399   0.177   6.841   5.469
  503W        W 1400   0.100   5.858   0.041
  504W        W 1401   7.425   1.891   3.543
  505W        W 1402   2.905   0.493   5.326
  506W        W 1403   1.813   1.775   4.665
  507W        W 1404   1.215   4.687   0.844
  508W        W 1405   7.582   0.005   3.042
  509W        W 1406   0.201   3.645   6.965
  510W        W 1407   7.277   4.794   2.733
  511W        W 1408   0.830   1.719   7.354
  512W        W 1409   5.349   4.628   4.057
  513W        W 1410   4.966   2.867   6.984
  514W        W 1411   6.613   7.421   6.380
  515W        W 1412   4.620   3.907   0.719
  516W        W 1413   7.222   7.579   7.508
  517W        W 1414   7.792   6.749   0.286
  518W        W 1415   7.772   0.232   5.642
  519W        W 1416   0.497   0.157   4.251
  520W        W 1417   6.420   7.919   0.320
  521W        W 1418   5.940   6.054   0.239
  522W        W 1419   4.342   2.977   1.604
  523W        W 1420   2.628   3.594   2.729
  524W        W 1421   4.653   2.617   1.232
  525W        W 1422   7.318   0.141   6.262
  526W        W 1423   6.209   0.931   1.592
  527W        W 1424   0.889   5.918   0.791
  528W        W 1425   0.322   3.167   4.880
  529W        W 1426   6.479   5.093   4.224
  530W        W 1427   5.660   4.132   7.602
  531W        W 1428   1.247   6.209   5.510
  532W        W 1429   4.110   1.383   5.752
  533W        W 1430   6.839   5.566   1.290
  534W        W 1431   1.712   6.500   6.804
  535W        W 1432   7.635   5.228   2.470
  536W        W 1433   0.324   3.610   2.813
  537W        W 1434   0.224   3.742   0.793
  538W        W 1435   1.908   6.078   7.028
  539W        W 1436   0.717   3.486   0.585
  540W        W 1437   3.187   0.885   5.582
  541W        W 1438   5.502   3.440   1.015
  542W        W 1439   0.033   4.036   6.689
  543W        W 1440   7.723   6.265   7.387
  544W        W 1441   5.805   4.808   1.212
  545W        W 1442   6.441   5.309   7.423
  546W        W 1443   5.144   5.357   7.685
  547W        W 1444   7.520   2.191   7.253
  548W        W 1445   4.744   5.516   5.387
  549W        W 1446   0.035   2.034   2.958
  550W        W 1447   3.017   5.364   3.640
  551W        W 1448   0.318   4.358   1.668
  552W        W 1449   0.425   4.345   5.912
  553W        W 1450   1.437   0.553   6.083
  554W        W 1451   2.542   1.777   2.588
  555W        W 1452   7.378   5.867   1.885
  556W        W 1453   5.808   0.551   0.559
  557W        W 1454   7.877   2.039   7.607
  558W        W 1455   5.204   3.543   1.426
  559W        W 1456   2.582   7.435   4.585
  560W        W 1457   1.677   2.861   5.916
  561W        W 1458   4.426   0.669   2.879
  562W        W 1459   5.158   5.228   6.585
  563W        W 1460   0.143   0.560   4.410
  564W        W 1461   4.606   5.967   5.119
  565W        W 1462   2.536   0.558   5.816
  566W        W 1463   7.991   5.633   6.639
  567W        W 1464   3.832   7.376   0.280
  568W        W 1465   0.286   5.890   4.577
  569W        W 1466   2.289   0.991   6.095
  570W        W 1467   2.265   7.063   5.248
  571W        W 1468   7.324   0.298   1.252
  572W        W 1469   1.774   5.224   7.423
  573W        W 1470   4.399   0.978   5.528
  574W        W 1471   4.993   5.267   2.821
  575W        W 1472   5.627   3.686   6.405
  576W        W 1473   7.259   2.940   1.332
  577W        W 1474   2.877   6.251   5.587
  578W        W 1475   1.227   1.237   0.955
  579W        W 1476   4.232   3.931   7.043
  580W        W 1477   1.236   7.565   4.667
  581W        W 1478   3.495   4.730   6.042
  582W        W 1479   5.740   1.246   1.262
  583W        W 1480   3.007   1.081   6.393
  584W        W 1481   6.796   4.395   4.888
  585W        W 1482   3.604   3.499   6.074
  586W        W 1483   5.221   1.061   6.166
  587W        W 1484   4.930   6.797   1.256
  588W        W 1485   2.289   3.106   4.016
  589W        W 1486   5.397   7.156   7.021
  590W        W 1487   1.186   5.085   5.902
  591W        W 1488   5.230   6.346   6.416
  592W        W 1489   7.176   0.904   7.736
  593W        W 1490   6.100   1.214   7.252
  594W        W 1491   6.460   0.201   5.175
  595W        W 1492   4.819   3.146   4.692
  596W        W 1493   5.101   1.691   1.163
  597W        W 1494   6.234   3.081   6.213
  598W        W 1495   6.922   4.502   4.361
  599W        W 1496   2.383   7.524   6.951
  600W        W 1497   3.158   2.409   3.475
  601W        W 1498   7.563   0.563   0.850
  602W        W 1499   6.503   3.116   0.416
  603W        W 1500   5.289   4.868   1.395
  604W        W 1501   0.424   7.201   6.711
  605W        W 1502   0.152   2.032   6.016
  606W        W 1503   7.587   4.028   2.743
  607W        W 1504   2.291   0.858   7.014
  608W        W 1505   5.202   0.039   1.816
  609W        W 1506   3.216   2.553   6.908
  610W        W 1507   4.125   0.137   4.980
  611W        W 1508   0.603   5.519   7.381
  612W        W 1509   5.652   1.070   7.518
  613W        W 1510   4.900   5.178   4.854
  614W        W 1511   1.500   7.354   5.865
  615W        W 1512   3.738   3.949   6.893
  616W        W 1513   6.105   3.523   5.085
  617W        W 1514   5.814   6.463   4.070
  618W        W 1515   6.426   6.802   4.629
  619W        W 1516   1.918   1.408   3.199
  620W        W 1517   7.084   0.246   7.757
  621W        W 1518   7.535   3.451   6.572
  622W        W 1519   4.761   4.458   7.624
  623W        W 1520   5.476   5.506   3.062
  624W        W 1521   2.863   3.651   4.411
  625W        W 1522   7.743   2.535   6.986
  626W        W 1523   3.772   5.184   5.908
  627W        W 1524   7.319   0.592   3.824
  628W        W 1525   0.942   3.312   3.162
  629W        W 1526   3.732   1.920   4.338
  630W        W 1527   5.663   7.312   0.318
  631W        W 1528   6.666   1.431   7.086
  632W        W 1529   4.791   5.033   4.367
  633W        W 1530   6.520   5.539   5.383
  634W        W 1531   3.053   0.148   6.574
  635W        W 1532   2.648   2.429   4.900
  636W        W 1533   4.099   7.265   7.501
  637W        W 1534   7.142   7.191   3.641
  638W        W 1535   5.414   4.967   5.019
  639W        W 1536   5.643   4.973   1.712
  640W        W 1537   3.634   0.799   1.537
  641W        W 1538   3.739   6.172   4.685
  642W        W 1539   7.646   0.601   5.030
  643W        W 1540   0.747   7.548   4.601
  644W        W 1541   7.994   6.359   3.127
  645W        W 1542   4.654   7.471   0.948
  646W        W 1543   3.264   6.732   4.230
  647W        W 1544   5.444   5.721   6.519
  648W        W 1545   1.008   3.978   2.077
  649W        W 1546   0.677   1.078   1.695
  650W        W 1547   7.017   4.256   1.494
  651W        W 1548   6.891   6.336   5.858
  652W        W 1549   1.614   5.297   3.790
  653W        W 1550   1.659   3.056   1.384
  654W        W 1551   1.408   3.908   7.214
  655W        W 1552   5.187   5.137   2.376
  656W        W 1553   5.945   7.734   0.261
  657W        W 1554   1.525   2.450   0.197
  658W        W 1555   0.843   5.491   6.891
  659W        W 1556   7.895   6.664   1.385
  660W        W 1557   4.583   7.146   2.891
  661W        W 1558   1.797   6.203   3.493
  662W        W 1559   7.135   0.546   6.432
  663W        W 1560   2.900   5.411   5.076
  664W        W 1561   6.485   0.695   2.439
  665W        W 1562   2.286   5.863   6.341
  666W        W 1563   5.315   1.012   2.156
  667W        W 1564   1.212   6.050   4.135
  668W        W 1565   5.465   5.844   3.535
  669W        W 1566   3.570   2.692   4.939
  670W        W 1567   3.117   3.245   0.875
  671W        W 1568   3.302   5.552   5.361
  672W        W 1569   3.398   6.302   2.719
  673W        W 1570   7.441   2.521   4.771
  674W        W 1571   5.560   3.464   4.792
  675W        W 1572   3.114   6.425   0.093
  676W        W 1573   3.636   4.251   6.241
  677W        W 1574   4.758   3.178   2.262
  678W        W 1575   1.587   1.163   3.531
  679W        W 1576   7.052   4.064   4.338
  680W        W 1577   0.063   3.334   1.877
  681W        W 1578   4.492   2.315   5.164
  682W        W 1579   6.124   5.431   3.999
  683W        W 1580   2.929   3.730   6.663
  684W        W 1581   6.545   0.630   1.750
  685W        W 1582   4.720   2.586   0.151
  686W        W 1583   3.666   1.042   2.376
  687W        W 1584   4.892   0.678   3.118
  688W        W 1585   6.602   4.315   3.583
  689W        W 1586   5.543   6.725   3.066
  690W        W 1587   4.428   4.893   7.861
  691W        W 1588   0.894   5.629   7.825
  692W        W 1589   1.349   4.504   5.750
  693W        W 1590   7.084   3.028   2.700
  694W        W 1591   5.021   6.502   4.099
  695W        W 1592   5.809   4.553   3.736
  696W        W 1593   7.200   6.199   0.631
  697W        W 1594   7.863   0.510   3.663
  698W        W 1595   0.355   1.834   0.726
  699W        W 1596   3.006   4.287   2.349
  700W        W 1597   6.192   5.055   6.704
  701W        W 1598   0.096   5.650   2.097
  702W        W 1599   5.053   5.760   2.776
  703W        W 1600   2.920   7.448   6.800
  704W        W 1601   0.547   1.496   2.918
  705W        W 1602   0.045   5.409   0.230
  706W        W 1603   3.246   0.574   7.868
  707W        W 1604   6.209   6.210   5.412
  708W        W 1605   0.915   3.151   0.918
  709W        W 1606   3.496   1.107   2.959
  710W        W 1607   1.212   3.620   1.771
  711W        W 1608   0.202   1.289   7.218
  712W        W 1609   6.261   0.329   0.226
  713W        W 1610   7.595   7.058   4.752
  714W        W 1611   5.221   7.081   1.783
  715W        W 1612   4.346   7.524   2.685
  716W        W 1613   2.680   2.372   6.812
  717W        W 1614   0.272   4.236   0.905
  718W        W 1615   6.359   6.594   1.848
  719W        W 1616   5.430   2.222   2.987
  720W        W 1617   4.265   1.979   4.152
  721W        W 1618   0.352   0.725   0.326
  722W        W 1619   5.441   5.763   1.841
  723W        W 1620   0.531   2.365   5.632
  724W        W 1621   2.954   1.700   1.674
  725W        W 1622   0.649   2.401   2.353
  726W        W 1623   1.721   3.936   3.585
  727W        W 1624   3.599   7.066   1.749
  728W        W 1625   5.545   4.090   2.682
  729W        W 1626   2.264   5.237   2.081
  730W        W 1627   5.913   7.713   4.093
  731W        W 1628   3.245   6.402   1.144
  732W        W 1629   3.932   3.889   7.439
  733W        W 1630   5.110   0.302   7.294
  734W        W 1631   4.040   7.897   1.758
  735W        W 1632   5.233   2.606   3.191
  736W        W 1633   5.567   7.716   0.647
  737W        W 1634   4.869   1.991   7.449
  738W        W 1635   3.390   3.753   2.940
  739W        W 1636   0.812   1.401   2.087
  740W        W 1637   3.202   6.231   7.403
  741W        W 1638   1.524   6.920   4.096
  742W        W 1639   1.421   1.412   3.028
  743W        W 1640   7.420   1.326   1.427
  744W        W 1641   2.017   4.018   0.446
  745W        W 1642   2.558   2.666   6.394
  746W        W 1643   7.651   2.160   5.691
  747W        W 1644   7.147   2.379   4.286
  748W        W 1645   6.438   3.904   5.094
  749W        W 1646   7.000   6.917   1.133
  750W        W 1647   3.171   7.858   5.933
  751W        W 1648   5.918   1.346   4.481
  752W        W 1649   7.354   5.835   6.709
  753W        W 1650   1.022   7.298   5.068
  754W        W 1651   1.637   3.652   1.536
  755W        W 1652   4.700   5.783   3.570
  756W        W 1653   4.056   4.719   5.852
  757W        W 1654   5.083   0.796   4.373
  758W        W 1655   3.569   7.764   1.852
  759W        W 1656   3.311   0.291   3.292
  760W        W 1657   3.141   5.918   4.320
  761W        W 1658   1.164   5.531   1.461
  762W        W 1659   5.900   4.482   7.822
  763W        W 1660   2.393   6.021   7.142
  764W        W 1661   3.662   1.541   5.473
  765W        W 1662   3.922   4.919   2.477
  766W        W 1663   3.203   4.382   3.852
  767W        W 1664   3.175   1.203   2.536
  768W        W 1665   4.765   0.817   1.985
  769W        W 1666   0.138   4.991   3.804
  770W        W 1667   6.678   2.203   6.575
  771W        W 1668   4.582   7.078   7.520
  772W        W 1669   7.080   0.317   2.566
  773W        W 1670   7.047   0.066   2.996
  774W        W 1671   2.137   6.064   3.184
  775W        W 1672   5.599   1.795   1.442
  776W        W 1673   6.324   7.800   5.275
  777W        W 1674   3.814   6.348   3.067
  778W        W 1675   3.896   0.582   2.569
  779W        W 1676   7.838   7.938   6.760
  780W        W 1677   5.724   3.797   7.221
  781W        W 1678   4.748   0.991   5.906
  782W        W 1679   6.550   6.219   6.919
  783W        W 1680   4.141   2.484   1.491
  784W        W 1681   4.366   4.879   1.892
  785W        W 1682   3.890   4.464   5.227
  786W        W 1683   4.322   4.220   2.198
  787W        W 1684   7.712   6.556   5.491
  788W        W 1685   6.681   0.257   1.311
  789W        W 1686   6.360   0.096   6.675
  790W        W 1687   3.641   2.035   4.803
  791W        W 1688   5.137   0.074   6.827
  792W        W 1689   7.127   1.857   4.383
  793W        W 1690   1.201   2.145   0.449
  794W        W 1691   6.194   7.259   6.684
  795W        W 1692   5.710   6.609   4.849
  796W        W 1693   3.286   6.929   2.196
  797W        W 1694   7.891   6.294   0.069
  798W        W 1695   6.993   6.038   1.494
  799W        W 1696   6.291   2.003   5.622
  800W        W 1697   6.843   6.613   4.968
  801W        W 1698   1.628   5.686   7.034
  802W        W 1699   0.372   5.154   0.568
  803W        W 1700   0.192   7.138   1.280
  804W        W 1701   3.695   6.274   7.428
  805W        W 1702   1.536   1.917   5.082
  806W        W 1703   7.188   6.624   5.549
  807W        W 1704   3.745   5.473   2.203
  808W        W 1705   2.387   1.610   3.010
  809W        W 1706   2.750   7.132   5.512
  810W        W 1707   1.472   4.161   3.223
  811W        W 1708   3.574   6.717   1.410
  812W        W 1709   4.042   6.809   2.948
  813W        W 1710   2.298   5.809   2.189
  814W        W 1711   1.396   7.287   3.533
  815W        W 1712   1.489   6.440   3.203
  816W        W 1713   5.793   4.260   3.313
  817W        W 1714   3.303   7.064   4.739
  818W        W 1715   5.584   4.019   1.010
  819W        W 1716   7.298   7.951   2.552
  820W        W 1717   4.137   1.128   2.129
  821W        W 1718   3.710   2.616   7.064
  822W        W 1719   2.771   3.120   1.212
  823W        W 1720   7.193   3.845   6.617
  824W        W 1721   3.496   1.347   0.700
  825W        W 1722   4.900   1.727   0.701
  826W        W 1723   5.959   1.680   4.854
  827W        W 1724   4.010   1.473   0.865
  828W        W 1725   3.907   1.399   6.185
  829W        W 1726   6.760   3.430   2.768
  830W        W 1727   5.565   4.482   1.544
  831W        W 1728   0.017   2.878   5.815
  832W        W 1729   5.654   3.685   5.857
  833W        W 1730   4.875   6.902   5.078
  834W        W 1731   0.603   3.088   3.538
  835W        W 1732   2.782   0.548   7.621
  836W        W 1733   0.824   2.973   4.029
  837W        W 1734   3.367   0.318   5.128
  838W        W 1735   4.797   7.291   3.383
  839W        W 1736   2.473   6.320   6.284
  840W        W 1737   2.635   3.243   6.778
  841W        W 1738   2.664   7.910   6.859
  842W        W 1739   7.209   0.112   5.633
  843W        W 1740   5.711   6.140   6.348
  844W        W 1741   6.674   2.198   4.234
  845W        W 1742   1.766   4.509   2.203
  846W        W 1743   6.076   2.859   0.746
  847W        W 1744   6.840   2.037   1.491
  848W        W 1745   1.311   2.704   1.901
  849W        W 1746   5.397   2.054   0.944
  850W        W 1747   6.285   2.643   0.354
  851W        W 1748   3.694   0.903   0.452
  852W        W 1749   1.893   0.839   0.304
  853W        W 1750   0.295   2.665   3.303
  854W        W 1751   5.081   3.448   5.746
  855W        W 1752   7.060   2.886   2.249
  856W        W 1753   7.262   3.375   4.721
  857W        W 1754   4.021   3.014   6.903
  858W        W 1755   1.218   0.494   3.184
  859W        W 1756   0.889   0.470   6.247
  860W        W 1757   2.027   1.006   3.859
  861W        W 1758   3.078   3.706   0.687
  862W        W 1759   5.653   2.313   7.951
  863W        W 1760   0.735   2.826   3.144
  864W        W 1761   1.304   4.926   7.471
  865W        W 1762   4.825   4.081   6.240
  866W        W 1763   6.728   3.740   2.280
  867W        W 1764   5.114   4.551   0.243
  868W        W 1765   7.038   6.970   1.620
  869W        W 1766   3.822   4.518   1.635
  870W        W 1767   4.001   1.172   5.234
  871W        W 1768   3.944   7.955   0.814
  872W        W 1769   0.546   3.519   6.411
  873W        W 1770   2.529   7.416   0.197
  874W        W 1771   0.703   1.015   5.857
  875W        W 1772   7.105   6.582   2.538
  876W        W 1773   3.681   1.747   6.533
  877W        W 1774   5.293   4.796   6.354
  878W        W 1775   0.915   3.159   7.669
  879W        W 1776   1.332   0.205   1.773
  880W        W 1777   5.819   7.572   7.811
  881W        W 1778   4.667   0.544   5.546
  882W        W 1779   5.235   5.420   5.229
  883W        W 1780   3.351   4.753   2.063
  884W        W 1781   5.804   2.667   1.240
  885W        W 1782   5.441   2.297   0.320
  886W        W 1783   4.362   1.525   5.319
  887W        W 1784   7.313   0.298   1.797
  888W        W 1785   0.001   1.151   2.642
  889W        W 1786   6.472   4.314   2.496
  890W        W 1787   3.087   7.268   4.331
  891W        W 1788   2.723   7.498   7.370
  892W        W 1789   1.157   0.291   0.019
  893W        W 1790   0.068   3.400   6.557
  894W        W 1791   2.906   7.091   6.429
  895W        W 1792   3.296   3.517   5.610
  896W        W 1793   4.511   5.557   4.874
  897W        W 1794   5.860   4.474   0.835
  898W        W 1795   3.140   5.477   4.628
  899W        W 1796   4.391   2.575   3.360
  900W        W 1797   2.871   6.934   7.424
  901W        W 1798   3.712   2.699   1.305
  902W        W 1799   1.796   1.134   5.320
  903W        W 1800   4.092   2.239   3.547
  904W        W 1801   1.500   0.397   0.922
  905W        W 1802   5.036   3.241   1.043
  906W        W 1803   6.763   3.246   7.585
  907W        W 1804   7.846   6.979   6.494
  908W        W 1805   4.943   4.920   7.811
  909W        W 1806   4.566   3.157   5.852
  910W        W 1807   2.943   6.998   3.799
  911W        W 1808   6.608   1.653   0.232
  912W        W 1809   1.326   5.599   6.604
  913W        W 1810   2.104   3.453   2.841
  914W        W 1811   6.428   6.822   5.303
  915W        W 1812   5.360   4.774   6.942
  916W        W 1813   3.958   6.118   6.932
  917W        W 1814   4.563   5.871   1.652
  918W        W 1815   0.128   4.512   3.746
  919W        W 1816   0.526   5.648   5.930
  920W        W 1817   6.709   2.108   2.927
  921W        W 1818   1.515   2.327   6.240
  922W        W 1819   4.465   5.572   7.382
  923W        W 1820   6.941   6.530   3.030
  924W        W 1821   5.805   4.177   6.037
  925W        W 1822   7.004   1.155   1.234
  926W        W 1823   0.388   3.811   5.758
  927W        W 1824   4.005   3.468   7.190
  928W        W 1825   6.670   0.107   7.514
  929W        W 1826   5.202   7.213   4.833
  930W        W 1827   0.297   4.506   5.010
  931W        W 1828   0.271   4.677   5.534
  932W        W 1829   4.491   2.303   7.446
  933W        W 1830   2.726   5.544   0.325
  934W        W 1831   3.337   2.878   3.083
  935W        W 1832   3.582   0.331   2.203
  936W        W 1833   2.483   1.644   3.901
  937W        W 1834   5.851   5.987   3.251
  938W        W 1835   4.864   5.840   1.046
  939W        W 1836   6.844   3.175   3.995
  940W        W 1837   0.518   3.301   1.767
  941W        W 1838   5.552   1.919   4.293
  942W        W 1839   6.644   6.410   3.846
  943W        W 1840   5.767   1.207   5.472
  944W        W 1841   7.590   5.210   7.218
  945W        W 1842   3.918   3.500   2.945
  946W        W 1843   6.334   2.871   1.214
  947W        W 1844   7.759   4.400   7.436
  948W        W 1845   1.164   0.380   1.302
  949W        W 1846   1.428   5.400   5.470
  950W        W 1847   7.012   3.763   1.423
  951W        W 1848   2.536   2.445   3.485
  952W        W 1849   1.085   2.146   3.233
  953W        W 1850   2.839   4.805   5.160
  954W        W 1851   6.972   6.161   3.542
  955W        W 1852   0.454   3.077   0.898
  956W        W 1853   1.276   5.980   1.156
  957W        W 1854   4.396   0.151   0.998
  958W        W 1855   3.757   0.708   5.103
  959W        W 1856   4.030   5.915   7.447
  960W        W 1857   5.179   7.568   1.086
  961W        W 1858   3.198   1.616   3.374
  962W        W 1859   7.319   5.022   0.938
  963W        W 1860   6.514   6.061   2.216
  964W        W 1861   3.013   2.894   6.527
  965W        W 1862   0.221   2.667   1.105
  966W        W 1863   5.527   2.920   0.879
  967W        W 1864   7.000   1.626   3.893
  968W        W 1865   0.082   5.279   5.631
  969W        W 1866   6.018   0.832   1.040
  970W        W 1867   2.600   5.145   3.858
  971W        W 1868   5.689   2.920   2.350
  972W        W 1869   6.357   6.420   4.224
  973W        W 1870   2.504   2.739   0.926
  974W        W 1871   2.973   3.959   2.779
  975W        W 1872   7.246   1.188   5.668
  976W        W 1873   0.784   5.443   0.582
  977W        W 1874   4.456   7.403   5.796
  978W        W 1875   3.083   2.675   4.172
  979W        W 1876   4.675   2.752   1.870
  980W        W 1877   4.158   4.184   3.586
  981W        W 1878   2.269   6.175   1.319
  982W        W 1879   0.625   5.859   1.817
  983W        W 1880   1.819   5.613   0.564
  984W        W 1881   0.003   4.041   0.383
  985W        W 1882   2.220   4.757   6.135
  986W        W 1883   7.406   6.131   6.248
  987W        W 1884   7.332   7.423   1.373
  988W        W 1885   4.591   4.252   3.345
  989W        W 1886   4.236   3.011   7.500
  990W        W 1887   1.180   6.272   4.569
  991W        W 1888   6.335   6.960   4.023
  992W        W 1889   3.501   0.218   0.224
  993W        W 1890   3.316   5.053   5.264
  994W        W 1891   7.113   1.939   1.921
  995W        W 1892   7.415   4.354   2.392
  996W        W 1893   6.751   7.606   6.813
  997W        W 1894   4.902   7.280   1.376
  998W        W 1895   1.908   5.662   4.953
  999W        W 1896   4.602   6.999   0.081
 1000W        W 1897   4.303   6.390   2.982
 1001W        W 1898   5.422   4.965   0.270
 1002W        W 1899   6.280   6.292   7.885
 1003W        W 1900   0.941   6.014   0.318
 1004W        W 1901   0.843   4.714   3.298
 1005W        W 1902   1.900   0.251   4.031
 1006W        W 1903   5.108   6.126   4.576
 1007W        W 1904   5.444   2.473   2.541
 1008W        W 1905   5.227   4.048   0.225
 1009W        W 1906   5.713   1.745   1.961
 1010W        W 1907   2.799   3.654   3.432
 1011W        W 1908   3.530   7.966   7.123
 1012W        W 1909   5.449   3.091   3.041
 1013W        W 1910   6.268   4.709   2.901
 1014W        W 1911   5.641   5.643   3.982
 1015W        W 1912   7.776   5.874   7.021
 1016W        W 1913   4.843   4.339   0.739
 1017W        W 1914   0.195   1.231   0.158
 1018W        W 1915   0.354   7.844   6.757
 1019W        W 1916   7.146   0.763   5.058
 1020W        W 1917   7.476   2.066   4.116
 1021W        W 1918   2.580   4.977   6.336
 1022W        W 1919   1.569   5.996   5.173
 1023W        W 1920   3.142   6.756   5.561
 1024W        W 1921   1.693   3.645   5.545
 1025W        W 1922   1.664   3.058   4.620
 1026W        W 1923   6.564   2.752   0.738
 1027W        W 1924   2.044   4.616   6.907
 1028W        W 1925   3.505   2.500   0.225
 1029W        W 1926   7.628   3.244   1.543
 1030W        W 1927   5.518   2.090   3.465
 1031W        W 1928   2.215   3.016   6.558
 1032W        W 1929   6.436   0.366   3.845
 1033W        W 1930   6.981   4.385   5.350
 1034W        W 1931   1.697   7.012   2.333
 1035W        W 1932   2.470   5.045   6.798
 1036W        W 1933   2.699   4.150   4.825
 1037W        W 1934   0.296   1.363   4.181
 1038W        W 1935   0.897   3.350   1.464
 1039W        W 1936   3.471   5.128   2.408
 1040W        W 1937   3.724   1.509   3.200
 1041W        W 1938   1.622   3.374   2.600
 1042W        W 1939   4.354   7.543   3.313
 1043W        W 1940   3.507   3.142   5.294
 1044W        W 1941   5.145   6.054   6.881
 1045W        W 1942   3.004   0.352   0.136
 1046W        W 1943   5.241   3.473   4.395
 1047W        W 1944   4.364   0.457   7.512
 1048W        W 1945   0.452   4.205   7.641
 1049W        W 1946   5.168   0.548   2.339
 1050W        W 1947   2.368   6.709   7.733
 1051W        W 1948   5.465   5.845   0.242
 1052W        W 1949   3.378   4.676   0.238
 1053W        W 1950   3.341   5.214   1.690
 1054W        W 1951   5.398   2.125   6.481
 1055W        W 1952   4.562   1.263   0.791
 1056W        W 1953   1.465   6.290   7.881
 1057W        W 1954   2.826   6.337   7.059
 1058W        W 1955   0.909   2.548   5.958
 1059W        W 1956   2.804   7.722   6.385
 1060W        W 1957   1.821   0.355   0.484
 1061W        W 1958   0.775   7.207   6.385
 1062W        W 1959   1.342   1.666   2.598
 1063W        W 1960   6.060   1.427   2.206
 1064W        W 1961   5.338   1.827   0.456
 1065W        W 1962   2.874   4.892   1.459
 1066W        W 1963   1.834   0.195   2.522
 1067W        W 1964   6.239   7.300   5.351
 1068W        W 1965   0.777   3.832   3.508
 1069W        W 1966   6.085   1.512   6.300
 1070W        W 1967   7.465   2.577   3.265
 1071W        W 1968   6.087   1.336   3.709
 1072W        W 1969   1.638   2.544   6.727
 1073W        W 1970   0.385   4.034   4.797
 1074W        W 1971   6.067   3.769   3.175
 1075W        W 1972   0.482   1.379   5.674
 1076W        W 1973   3.665   3.092   5.783
 1077W        W 1974   5.309   6.489   1.442
 1078W        W 1975   0.524   3.550   3.870
 1079W        W 1976   0.786   3.743   2.892
 1080W        W 1977   4.999   6.683   5.574
 1081W        W 1978   1.681   4.256   4.748
 1082W        W 1979   0.938   1.418   6.009
 1083W        W 1980   5.440   4.797   3.544
 1084W        W 1981   1.130   4.601   0.022
 1085W        W 1982   4.667   0.450   5.005
 1086W        W 1983   0.559   1.736   5.308
 1087W        W 1984   1.912   7.623   0.138
 1088W        W 1985   5.143   1.691   1.760
 1089W        W 1986   6.608   3.807   1.743
 1090W        W 1987   3.360   2.001   4.042
 1091W        W 1988   1.248   6.889   3.215
 1092W        W 1989   0.386   0.180   0.625
 1093W        W 1990   4.866   2.164   0.978
 1094W        W 1991   7.818   0.030   0.051
 1095W        W 1992   1.154   2.878   1.361
 1096W        W 1993   0.217   5.175   1.127
 1097W        W 1994   2.460   5.193   5.213
 1098W        W 1995   5.998   1.762   4.130
 1099W        W 1996   2.632   3.609   0.299
 1100W        W 1997   0.016   0.103   4.674
 1101W        W 1998   0.791   3.735   5.499
 1102W        W 1999   1.278   1.701   4.585
 1103W        W 2000   6.061   1.630   1.049
 1104W        W 2001   4.359   1.204   1.277
 1105W        W 2002   7.505   0.577   6.032
 1106W        W 2003   2.201   1.277   5.682
 1107W        W 2004   7.471   0.804   3.433
 1108W        W 2005   0.007   7.473   7.485
 1109W        W 2006   0.304   6.595   0.094
 1110W        W 2007   6.980   3.724   5.751
 1111W        W 2008   7.267   0.286   3.432
 1112W        W 2009   0.667   1.209   3.347
 1113W        W 2010   1.447   1.939   2.961
 1114W        W 2011   3.201   5.503   0.365
 1115W        W 2012   3.084   1.142   1.986
 1116W        W 2013   5.634   6.317   5.254
 1117W        W 2014   0.985   5.964   3.333
 1118W        W 2015   6.265   4.431   5.015
 1119W        W 2016   3.817   0.298   5.391
 1120W        W 2017   2.476   0.913   7.524
 1121W        W 2018   4.966   3.303   3.037
 1122W        W 2019   7.453   2.320   5.309
 1123W        W 2020   7.640   7.552   7.172
 1124W        W 2021   2.261   0.455   0.278
 1125W        W 2022   5.950   2.835   4.406
 1126W        W 2023   3.541   0.154   2.723
 1127W        W 2024   3.276   2.798   1.962
 1128W        W 2025   6.605   4.633   3.981
 1129W        W 2026   2.097   5.571   7.236
 1130W        W 2027   3.938   4.747   0.571
 1131W        W 2028   3.676   6.414   3.541
 1132W        W 2029   5.639   1.258   2.512
 1133W        W 2030   6.580   2.519   7.484
 1134W        W 2031   4.136   5.789   0.177
 1135W        W 2032   6.582   2.142   0.206
 1136W        W 2033   3.323   6.757   7.436
 1137W        W 2034   7.386   2.328   6.003
 1138W        W 2035   4.897   3.388   6.199
 1139W        W 2036   3.152   1.405   6.034
 1140W        W 2037   4.753   6.501   4.682
 1141W        W 2038   7.787   1.222   1.973
 1142W        W 2039   6.495   5.484   0.012
 1143W        W 2040   0.973   2.798   0.005
 1144W        W 2041   2.719   3.061   6.067
 1145W        W 2042   0.311   2.970   6.510
 1146W        W 2043   3.989   1.950   5.393
 1147W        W 2044   4.207   2.560   7.067
 1148W        W 2045   3.163   6.994   1.347
 1149W        W 2046   3.157   2.765   4.711
 1150W        W 2047   7.860   4.910   5.399
 1151W        W 2048   7.415   4.168   0.704
 1152W        W 2049   6.256   1.267   4.194
 1153W        W 2050   3.739   5.514   1.710
 1154W        W 2051   3.727   2.511   2.244
 1155W        W 2052   4.923   1.444   5.399
 1156W        W 2053   2.232   2.089   3.938
 1157W        W 2054   5.287   2.289   7.423
 1158W        W 2055   5.105   5.474   6.177
 1159W        W 2056   7.078   6.166   5.351
 1160W        W 2057   6.122   1.669   0.272
 1161W        W 2058   0.562   6.696   4.224
 1162W        W 2059   7.264   2.924   4.477
 1163W        W 2060   4.618   4.853   5.774
 1164W        W 2061   5.446   0.715   3.238
 1165W        W 2062   1.736   7.025   0.934
 1166W        W 2063   4.487   5.108   6.605
 1167W        W 2064   3.494   1.117   5.266
 1168W        W 2065   5.900   4.294   2.348
 1169W        W 2066   0.744   0.647   3.507
 1170W        W 2067   1.061   2.166   6.440
 1171W        W 2068   3.500   4.993   3.530
 1172W        W 2069   1.456   6.088   6.783
 1173W        W 2070   0.721   5.777   4.064
 1174W        W 2071   2.224   4.029   1.619
 1175W        W 2072   4.093   7.270   4.077
 1176W        W 2073   4.486   1.512   3.592
 1177W        W 2074   6.821   2.684   4.519
 1178W        W 2075   7.591   1.988   3.057
 1179W        W 2076   0.176   4.104   4.233
 1180W        W 2077   4.662   3.662   5.389
 1181W        W 2078   3.102   2.998   5.602
 1182W        W 2079   2.932   6.778   4.683
 1183W        W 2080   0.834   4.074   5.082
 1184W        W 2081   0.487   1.568   6.136
 1185W        W 2082   3.816   3.033   2.810
 1186W        W 2083   7.677   5.164   1.867
 1187W        W 2084   3.674   6.573   5.610
 1188W        W 2085   6.041   4.914   7.650
 1189W        W 2086   1.498   1.382   4.905
 1190W        W 2087   4.399   2.224   1.137
 1191W        W 2088   1.079   0.800   4.328
 1192W        W 2089   6.991   5.747   0.853
 1193W        W 2090   3.953   0.469   0.623
 1194W        W 2091   7.739   5.277   1.321
 1195W        W 2092   5.736   6.995   6.161
 1196W        W 2093   4.503   2.133   5.680
 1197W        W 2094   0.339   7.377   1.948
 1198W        W 2095   0.921   6.228   2.177
 1199W        W 2096   1.148   4.542   6.912
 1200W        W 2097   6.086   5.191   1.483
 1201W        W 2098   4.388   0.124   0.498
 1202W        W 2099   6.891   5.013   7.314
 1203W        W 2100   4.201   3.828   2.580
 1204W        W 2101   6.918   4.515   6.020
 1205W        W 2102   7.212   6.156   2.290
 1206W        W 2103   6.741   2.980   6.628
 1207W        W 2104   2.993   6.432   0.665
 1208W        W 2105   5.777   5.716   7.713
 1209W        W 2106   1.153   2.669   0.473
 1210W        W 2107   6.464   2.630   6.372
 1211W        W 2108   3.777   5.041   3.983
 1212W        W 2109   6.230   5.550   1.949
 1213W        W 2110   1.666   2.182   2.557
 1214W        W 2111   2.492   6.273   2.169
 1215W        W 2112   2.663   7.517   0.802
 1216W        W 2113   3.737   2.660   6.034
 1217W        W 2114   6.420   2.814   4.139
 1218W        W 2115   2.111   3.553   1.486
 1219W        W 2116   0.056   0.427   2.832
 1220W        W 2117   1.117   7.647   6.069
 1221W        W 2118   6.219   5.873   6.812
 1222W        W 2119   5.243   3.528   3.408
 1223W        W 2120   4.343   4.692   5.384
 1224W        W 2121   7.508   0.166   2.258
 1225W        W 2122   5.340   6.059   2.541
 1226W        W 2123   1.347   6.122   2.686
 1227W        W 2124   6.884   0.578   7.417
 1228W        W 2125   2.943   0.783   2.344
 1229W        W 2126   4.079   6.023   4.351
 1230W        W 2127   4.425   1.954   7.083
 1231W        W 2128   0.232   6.549   0.771
 1232W        W 2129   0.591   5.175   3.517
 1233W        W 2130   4.290   5.304   1.647
 1234W        W 2131   5.587   2.360   1.548
 1235W        W 2132   3.412   2.518   6.484
 1236W        W 2133   1.800   6.958   4.553
 1237W        W 2134   6.351   1.034   2.079
 1238W        W 2135   0.347   5.778   5.098
 1239W        W 2136   4.602   2.448   0.681
 1240W        W 2137   0.176   3.893   3.716
 1241W        W 2138   6.373   3.359   3.339
 1242W        W 2139   4.649   1.885   4.478
 1243W        W 2140   6.861   1.993   2.479
 1244W        W 2141   3.810   5.574   0.861
 1245W        W 2142   5.481   0.448   7.577
 1246W        W 2143   4.876   1.732   6.991
 1247W        W 2144   0.850   0.708   2.890
 1248W        W 2145   0.172   5.419   6.260
 1249W        W 2146   4.993   6.619   1.777
 1250W        W 2147   6.302   6.449   0.468
 1251W        W 2148   2.023   4.775   4.566
 1252W        W 2149   3.927   1.219   1.525
 1253W        W 2150   5.914   2.344   3.234
 1254W        W 2151   1.936   7.458   1.801
 1255W        W 2152   2.191   5.884   0.891
 1256W        W 2153   2.946   3.010   7.081
 1257W        W 2154   0.403   0.677   2.529
 1258W        W 2155   3.607   4.399   5.713
 1259W        W 2156   6.651   4.122   5.875
 1260W        W 2157   3.650   1.181   5.817
 1261W        W 2158   6.839   0.103   0.252
 1262W        W 2159   1.304   2.260   7.257
 1263W        W 2160   0.355   6.905   2.535
 1264W        W 2161   6.057   2.553   2.331
 1265W        W 2162   6.922   4.117   1.982
 1266W        W 2163   1.998   4.181   3.126
 1267W        W 2164   6.060   5.321   2.393
 1268W        W 2165   3.362   7.821   7.687
 1269W        W 2166   3.696   3.430   6.748
 1270W        W 2167   6.034   3.740   0.950
 1271W        W 2168   3.728   0.913   6.345
 1272W        W 2169   3.315   4.899   2.817
 1273W        W 2170   5.217   4.981   5.881
 1274W        W 2171   0.594   0.090   6.022
 1275W        W 2172   5.230   5.305   1.880
 1276W        W 2173   3.032   1.755   2.519
 1277W        W 2174   4.184   5.626   5.296
 1278W        W 2175   2.294   6.490   1.731
 1279W        W 2176   5.754   4.647   7.351
 1280W        W 2177   4.997   6.915   4.465
 1281W        W 2178   3.596   2.501   0.732
 1282W        W 2179   0.936   4.322   6.089
 1283W        W 2180   0.833   7.622   6.778
 1284W        W 2181   4.062   5.318   4.870
 1285W        W 2182   2.040   0.260   5.024
 1286W        W 2183   3.889   6.723   7.542
 1287W        W 2184   0.862   6.538   0.251
 1288W        W 2185   5.894   7.172   3.957
 1289W        W 2186   1.124   3.015   2.735
 1290W        W 2187   0.300   4.453   6.463
 1291W        W 2188   3.578   1.992   7.916
 1292W        W 2189   0.285   5.537   3.614
 1293W        W 2190   0.325   0.641   1.620
 1294W        W 2191   1.853   7.749   2.223
 1295W        W 2192   5.461   4.541   2.447
 1296W        W 2193   1.550   0.760   5.615
 1297W        W 2194   0.517   7.623   7.632
 1298W        W 2195   3.356   7.307   0.143
 1299W        W 2196   0.764   5.254   4.025
 1300W        W 2197   7.025   4.993   6.147
 1301W        W 2198   2.686   1.844   5.857
 1302W        W 2199   1.355   0.207   2.311
 1303W        W 2200   4.323   6.866   3.803
 1304W        W 2201   6.591   2.008   1.994
 1305W        W 2202   6.482   3.851   2.716
 1306W        W 2203   5.027   1.383   6.502
 1307W        W 2204   3.985   7.425   0.898
 1308W        W 2205   5.171   7.381   2.880
 1309W        W 2206   0.061   1.487   5.192
 1310W        W 2207   4.114   0.242   2.343
 1311W        W 2208   2.811   2.637   5.717
 1312W        W 2209   3.173   1.837   7.517
 1313W        W 2210   0.429   5.027   5.229
 1314W        W 2211   7.601   7.132   5.439
 1315W        W 2212   1.914   4.956   0.181
 1316W        W 2213   5.814   0.605   7.206
 1317W        W 2214   2.414   3.338   3.550
 1318W        W 2215   5.515   3.154   0.293
 1319W        W 2216   5.947   0.852   4.478
 1320W        W 2217   7.072   0.464   5.924
 1321W        W 2218   7.451   4.429   0.239
 1322W        W 2219   5.108   5.571   3.873
 1323W        W 2220   6.119   4.913   3.718
 1324W        W 2221   6.069   3.507   6.110
 1325W        W 2222   7.708   1.714   7.231
 1326W        W 2223   7.738   1.006   6.227
 1327W        W 2224   3.882   7.454   1.443
 1328W        W 2225   4.823   2.843   3.268
 1329W        W 2226   1.508   2.550   1.237
 1330W        W 2227   3.943   0.452   6.544
 1331W        W 2228   7.671   4.616   1.903
 1332W        W 2229   4.984   0.197   5.627
 1333W        W 2230   1.266   3.859   5.422
 1334W        W 2231   4.074   1.852   1.220
 1335W        W 2232   2.767   6.856   2.116
 1336W        W 2233   2.694   1.833   6.786
 1337W        W 2234   1.776   3.968   1.882
 1338W        W 2235   1.433   6.839   5.911
 1339W        W 2236   0.937   6.741   7.292
 1340W        W 2237   3.873   2.918   0.695
 1341W        W 2238   4.633   1.684   6.480
 1342W        W 2239   5.136   5.654   2.250
 1343W        W 2240   5.669   0.753   6.255
 1344W        W 2241   2.224   1.472   2.370
 1345W        W 2242   3.789   6.089   2.538
 1346W        W 2243   3.637   6.393   4.251
 1347W        W 2244   4.946   7.098   3.972
 1348W        W 2245   2.105   6.729   6.482
 1349W        W 2246   0.188   7.660   5.751
 1350W        W 2247   6.312   6.895   0.582
 1351W        W 2248   6.740   4.741   2.733
 1352W        W 2249   5.952   6.594   1.539
 1353W        W 2250   1.833   4.741   7.357
 1354W        W 2251   3.296   2.774   7.354
 1355W        W 2252   2.922   5.931   5.199
 1356W        W 2253   1.617   6.714   2.744
 1357W        W 2254   5.128   4.140   2.311
 1358W        W 2255   3.305   5.931   0.083
 1359W        W 2256   6.758   2.202   4.719
 1360W        W 2257   5.590   6.386   6.761
 1361W        W 2258   0.718   1.108   1.178
 1362W        W 2259   5.579   3.161   7.796
 1363W        W 2260   1.112   3.647   0.840
 1364W        W 2261   6.331   0.780   2.972
 1365W        W 2262   4.908   4.412   5.364
 1366W        W 2263   7.587   5.823   0.334
 1367W        W 2264   7.290   1.129   3.799
 1368W        W 2265   3.714   2.040   1.465
 1369W        W 2266   7.237   5.494   2.855
 1370W        W 2267   3.796   6.571   6.955
 1371W        W 2268   1.778   6.030   1.271
 1372W        W 2269   7.591   2.620   1.561
 1373W        W 2270   1.116   5.761   4.478
 1374W        W 2271   5.633   5.043   6.633
 1375W        W 2272   7.688   3.141   4.289
 1376W        W 2273   3.902   6.224   5.291
 1377W        W 2274   7.548   7.130   7.445
 1378W        W 2275   4.078   6.811   1.228
 1379W        W 2276   7.313   4.817   7.484
 1380W        W 2277   7.388   6.661   7.393
 1381W        W 2278   2.617   2.730   5.294
 1382W        W 2279   0.066   4.405   4.621
 1383W        W 2280   0.529   5.970   3.629
 1384W        W 2281   1.082   5.121   3.580
 1385W        W 2282   6.769   6.635   7.704
 1386W        W 2283   0.164   6.131   6.648
 1387W        W 2284   0.785   4.239   2.560
 1388W        W 2285   5.822   4.122   0.417
 1389W        W 2286   3.554   3.598   7.563
 1390W        W 2287   0.559   3.992   6.820
 1391W        W 2288   1.324   3.160   2.276
 1392W        W 2289   1.894   1.102   7.970
 1393W        W 2290   2.800   4.596   3.966
 1394W        W 2291   4.534   1.931   3.184
 1395W        W 2292   1.318   0.987   7.823
 1396W        W 2293   5.336   6.642   0.219
 1397W        W 2294   5.751   4.630   2.029
 1398W        W 2295   5.462   7.445   5.905
 1399W        W 2296   5.394   7.332   3.924
 1400W        W 2297   1.932   6.657   7.394
 1401W        W 2298   3.313   3.006   6.108
 1402W        W 2299   7.018   4.293   7.774
 1403W        W 2300   6.251   4.531   2.084
 1404W        W 2301   5.677   0.823   1.485
 1405W        W 2302   0.181   0.313   7.472
 1406W        W 2303   4.046   2.412   5.076
 1407W        W 2304   7.788   3.530   1.096
 1408W        W 2305   6.063   2.971   2.700
 1409W        W 2306   6.957   3.770   7.577
 1410W        W 2307   4.540   2.522   6.452
 1411W        W 2308   3.530   0.381   6.928
 1412W        W 2309   3.573   2.011   3.508
 1413W        W 2310   7.941   6.739   7.309
 1414W        W 2311   5.642   1.206   5.954
 1415W        W 2312   3.708   0.045   6.418
 1416W        W 2313   5.034   1.272   4.762
 1417W        W 2314   1.725   4.283   6.180
 1418W        W 2315   3.429   0.065   4.510
 1419W        W 2316   6.949   0.172   3.822
 1420W        W 2317   1.038   3.576   7.433
 1421W        W 2318   2.652   5.645   1.216
 1422W        W 2319   6.126   6.337   3.747
 1423W        W 2320   6.615   3.402   5.975
 1424W        W 2321   2.175   1.295   1.874
 1425W        W 2322   1.999   3.934   4.185
 1426W        W 2323   3.957   7.669   5.072
 1427W        W 2324   5.235   1.803   2.756
 1428W        W 2325   1.685   1.293   0.421
 1429W        W 2326   3.094   5.313   2.624
 1430W        W 2327   1.963   6.059   5.524
 1431W        W 2328   0.439   1.282   2.433
 1432W        W 2329   0.256   3.930   1.979
 1433W        W 2330   0.659   7.191   4.113
 1434W        W 2331   6.040   4.928   4.276
 1435W        W 2332   7.192   2.343   1.678
 1436W        W 2333   0.855   0.673   0.025
 1437W        W 2334   1.077   4.228   4.581
 1438W        W 2335   5.578   0.261   5.410
 1439W        W 2336   3.342   0.838   6.064
 1440W        W 2337   5.847   3.300   0.705
 1441W        W 2338   1.049   2.854   5.481
 1442W        W 2339   3.880   1.009   3.305
 1443W        W 2340   3.349   0.740   2.617
 1444W        W 2341   3.414   0.026   3.754
 1445W        W 2342   5.279   3.992   3.233
 1446W        W 2343   1.204   1.112   5.672
 1447W        W 2344   4.636   3.366   0.664
 1448W        W 2345   5.867   1.910   6.439
 1449W        W 2346   6.972   4.184   3.358
 1450W        W 2347   1.757   5.758   2.386
 1451W        W 2348   4.545   0.159   7.952
 1452W        W 2349   2.785   0.380   0.604
 1453W        W 2350   7.453   7.326   6.059
 1454W        W 2351   7.622   7.395   6.668
 1455W        W 2352   4.467   7.370   2.231
 1456W        W 2353   5.881   6.534   6.110
 1457W        W 2354   4.576   5.573   6.286
 1458W        W 2355   4.415   1.467   7.041
 1459W        W 2356   7.622   2.966   7.407
 1460W        W 2357   5.107   6.191   5.599
 1461W        W 2358   2.370   4.307   4.069
 1462W        W 2359   3.922   7.605   7.838
 1463W        W 2360   2.765   6.116   0.203
 1464W        W 2361   6.542   2.731   2.102
 1465W        W 2362   5.764   6.814   0.460
 1466W        W 2363   0.607   5.107   5.786
 1467W        W 2364   5.685   5.510   5.672
 1468W        W 2365   6.651   7.169   3.600
 1469W        W 2366   7.032   1.800   7.258
 1470W        W 2367   7.466   0.457   7.432
 1471W        W 2368   1.287   5.443   7.476
 1472W        W 2369   5.107   0.975   1.586
 1473W        W 2370   2.976   2.602   0.038
 1474W        W 2371   6.839   7.828   2.078
 1475W        W 2372   5.096   0.342   3.456
 1476W        W 2373   7.414   3.625   6.082
 1477W        W 2374   7.444   6.258   6.994
 1478W        W 2375   0.981   1.980   6.889
 1479W        W 2376   1.698   6.040   0.745
 1480W        W 2377   4.291   7.260   5.202
 1481W        W 2378   1.832   1.599   6.802
 1482W        W 2379   1.571   0.159   3.661
 1483W        W 2380   2.094   1.166   2.820
 1484W        W 2381   4.369   0.714   2.394
 1485W        W 2382   1.978   2.923   3.614
 1486W        W 2383   4.646   5.944   7.121
 1487W        W 2384   2.184   7.558   7.565
 1488W        W 2385   7.515   7.059   1.667
 1489W        W 2386   5.632   6.273   0.555
 1490W        W 2387   7.772   5.007   2.868
 1491W        W 2388   0.832   7.449   1.820
 1492W        W 2389   2.543   3.552   1.080
 1493W        W 2390   1.489   3.457   3.598
 1494W        W 2391   4.464   7.476   4.318
 1495W        W 2392   7.209   1.608   1.007
 1496W        W 2393   7.819   2.425   0.823
 1497W        W 2394   7.684   3.770   1.542
 1498W        W 2395   1.791   1.401   2.178
 1499W        W 2396   4.175   5.704   2.109
 1500W        W 2397   3.777   5.363   5.362
 1501W        W 2398   0.808   4.842   0.512
 1502W        W 2399   0.557   0.767   0.837
 1503W        W 2400   7.396   2.144   2.285
 1504W        W 2401   3.286   1.367   7.418
 1505W        W 2402   0.073   7.311   2.727
 1506W        W 2403   4.249   5.123   3.707
 1507W        W 2404   6.108   0.476   2.685
 1508W        W 2405   5.746   0.169   2.180
 1509W        W 2406   0.618   1.067   6.389
 1510W        W 2407   6.417   4.384   7.015
 1511W        W 2408   3.098   0.309   1.107
 1512W        W 2409   5.510   5.288   6.214
 1513W        W 2410   0.645   6.649   2.890
 1514W        W 2411   3.502   4.934   4.472
 1515W        W 2412   3.043   0.357   7.017
 1516W        W 2413   3.017   4.769   2.442
 1517W        W 2414   6.702   1.587   1.012
 1518W        W 2415   4.595   0.268   3.168
 1519W        W 2416   2.018   2.511   2.460
 1520W        W 2417   5.339   2.579   3.728
 1521W        W 2418   2.529   5.449   6.412
 1522W        W 2419   3.428   5.126   6.378
 1523W        W 2420   7.373   3.802   3.851
 1524W        W 2421   3.151   2.240   0.425
 1525W        W 2422   2.520   0.357   6.877
 1526W        W 2423   7.254   2.918   6.584
 1527W        W 2424   2.553   1.263   1.173
 1528W        W 2425   0.527   1.313   7.570
 1529W        W 2426   7.116   5.438   7.039
 1530W        W 2427   1.996   0.039   3.378
 1531W        W 2428   7.485   2.874   6.173
 1532W        W 2429   7.608   5.585   6.318
 1533W        W 2430   0.213   6.878   1.741
 1534W        W 2431   6.753   7.597   4.938
 1535W        W 2432   3.436   4.257   2.072
 1536W        W 2433   7.335   1.510   1.843
 1537W        W 2434   0.624   7.690   4.069
 1538W        W 2435   1.189   5.528   3.936
 1539W        W 2436   3.193   1.760   0.687
 1540W        W 2437   3.407   4.553   0.697
 1541W        W 2438   4.816   2.432   7.080
 1542W        W 2439   0.464   4.182   5.391
 1543W        W 2440   5.085   2.746   4.577
 1544W        W 2441   6.311   1.793   6.945
 1545W        W 2442   7.248   0.490   4.654
 1546W        W 2443   1.578   0.561   1.513
 1547W        W 2444   0.163   4.900   4.767
 1548W        W 2445   1.390   3.206   7.456
 1549W        W 2446   1.789   5.157   2.912
 1550W        W 2447   7.661   4.491   5.009
 1551W        W 2448   2.531   1.020   2.076
 1552W        W 2449   3.016   3.384   3.020
 1553W        W 2450   0.329   1.328   6.700
 1554W        W 2451   1.992   2.594   6.242
 1555W        W 2452   4.955   7.737   2.542
 1556W        W 2453   4.453   4.650   6.316
 1557W        W 2454   3.162   2.630   5.248
 1558W        W 2455   5.435   6.421   5.905
 1559W        W 2456   6.318   4.527   1.141
 1560W        W 2457   2.795   3.487   5.861
 1561W        W 2458   5.505   4.971   7.689
 1562W        W 2459   5.537   4.004   1.517
 1563W        W 2460   6.639   4.827   0.731
 1564W        W 2461   1.989   5.266   3.367
 1565W        W 2462   1.441   0.409   2.745
 1566W        W 2463   6.397   3.710   5.643
 1567W        W 2464   7.056   0.768   6.982
 1568W        W 2465   5.358   4.297   3.635
 1569W        W 2466   0.576   4.406   7.164
 1570W        W 2467   1.734   0.332   7.420
 1571W        W 2468   2.660   5.098   7.919
 1572W        W 2469   5.772   2.401   0.733
 1573W        W 2470   4.438   5.155   5.178
 1574W        W 2471   2.671   1.960   6.346
 1575W        W 2472   1.765   6.611   2.013
 1576W        W 2473   2.391   3.822   4.472
 1577W        W 2474   5.814   5.830   2.740
 1578W        W 2475   0.692   1.024   3.893
 1579W        W 2476   4.076   4.360   3.129
 1580W        W 2477   3.205   0.791   3.265
 1581W        W 2478   5.526   5.410   6.960
 1582W        W 2479   1.990   2.427   0.388
 1583W        W 2480   2.868   5.553   4.098
 1584W        W 2481   0.980   5.608   5.702
 1585W        W 2482   5.858   2.253   5.700
 1586W        W 2483   0.274   4.709   0.782
 1587W        W 2484   2.491   4.948   4.695
 1588W        W 2485   2.467   0.548   1.911
 1589W        W 2486   6.531   4.885   2.258
 1590W        W 2487   3.216   3.324   6.769
 1591W        W 2488   2.016   0.649   2.763
 1592W        W 2489   0.776   7.026   3.448
 1593W        W 2490   6.257   0.049   7.804
 1594W        W 2491   2.769   2.332   3.953
 1595W        W 2492   2.647   5.507   6.980
 1596W        W 2493   5.881   5.785   2.260
 1597W        W 2494   2.657   2.848   4.251
 1598W        W 2495   7.808   6.537   3.566
 1599W        W 2496   3.516   7.607   4.272
 1600W        W 2497   3.424   6.925   3.613
 1601W        W 2498   0.483   0.297   6.555
 1602W        W 2499   4.429   4.711   7.357
 1603W        W 2500   1.396   6.712   7.553
 1604W        W 2501   4.099   3.364   5.994
 1605W        W 2502   7.494   1.191   0.984
 1606W        W 2503   3.853   4.818   0.070
 1607W        W 2504   5.960   1.198   4.977
 1608W        W 2505   5.033   5.651   0.213
 1609W        W 2506   5.166   3.297   2.554
 1610W        W 2507   6.900   2.318   0.600
 1611W        W 2508   1.111   2.459   6.875
 1612W        W 2509   0.302   0.807   6.721
 1613W        W 2510   4.177   4.628   3.946
 1614W        W 2511   5.798   2.784   3.902
 1615W        W 2512   7.073   4.583   3.715
 1616W        W 2513   7.179   3.464   7.307
 1617W        W 2514   1.875   5.670   2.863
 1618W        W 2515   1.249   4.190   0.839
 1619W        W 2516   4.638   6.353   5.644
 1620W        W 2517   3.580   3.200   1.064
 1621W        W 2518   2.526   3.282   7.359
 1622W        W 2519   3.843   0.785   5.595
 1623W        W 2520   1.962   0.517   3.593
 1624W        W 2521   7.330   6.644   5.037
 1625W        W 2522   3.114   6.868   0.871
 1626W        W 2523   1.413   2.944   7.000
 1627W        W 2524   5.574   2.616   4.746
 1628W        W 2525   3.474   0.799   4.361
 1629W        W 2526   2.069   7.374   4.854
 1630W        W 2527   0.448   0.638   6.210
 1631W        W 2528   2.584   5.970   4.201
 1632W        W 2529   0.985   4.245   5.589
 1633W        W 2530   1.110   1.259   3.675
 1634W        W 2531   5.261   0.686   1.193
 1635W        W 2532   5.874   0.817   3.559
 1636W        W 2533   1.037   0.452   5.780
 1637W        W 2534   6.299   6.001   5.856
 1638W        W 2535   1.074   0.291   3.689
 1639W        W 2536   6.143   0.541   2.088
 1640W        W 2537   5.531   6.685   1.928
 1641W        W 2538   4.395   2.448   3.909
 1642W        W 2539   2.566   1.447   6.183
 1643W        W 2540   4.419   0.971   7.169
 1644W        W 2541   0.638   0.525   7.210
 1645W        W 2542   2.848   5.053   4.266
 1646W        W 2543   7.386   3.899   0.274
 1647W        W 2544   3.674   5.952   4.055
 1648W        W 2545   1.230   7.334   0.843
 1649W        W 2546   1.219   1.645   0.593
 1650W        W 2547   2.223   1.625   6.504
 1651W        W 2548   3.288   3.889   5.962
 1652W        W 2549   7.706   2.435   2.812
 1653W        W 2550   0.890   2.120   4.923
 1654W        W 2551   2.443   6.161   5.267
 1655W        W 2552   1.811   5.290   6.790
 1656W        W 2553   3.406   2.905   0.505
 1657W        W 2554   7.425   4.879   2.271
 1658W        W 2555   5.567   7.750   2.973
 1659W        W 2556   4.133   5.179   7.571
 1660W        W 2557   2.783   3.019   2.816
 1661W        W 2558   1.930   7.493   5.355
 1662W        W 2559   1.720   5.963   4.000
 1663W        W 2560   6.384   7.461   3.976
 1664W        W 2561   0.612   2.337   0.724
 1665W        W 2562   4.255   5.130   6.119
 1666W        W 2563   6.893   2.676   4.015
 1667W        W 2564   7.152   4.350   2.928
 1668W        W 2565   7.917   1.335   0.567
 1669W        W 2566   2.199   1.995   6.868
 1670W        W 2567   0.589   3.749   2.325
 1671W        W 2568   5.467   4.137   5.269
 1672W        W 2569   7.769   0.007   0.609
 1673W        W 2570   3.719   0.018   3.235
 1674W        W 2571   4.320   7.270   0.451
 1675W        W 2572   5.418   6.375   7.265
 1676W        W 2573   2.061   6.437   0.850
 1677W        W 2574   2.863   5.175   5.543
 1678W        W 2575   2.775   4.943   2.837
 1679W        W 2576   6.124   0.950   6.361
 1680W        W 2577   4.045   6.518   2.556
 1681W        W 2578   3.916   2.169   2.571
 1682W        W 2579   0.726   0.133   1.450
 1683W        W 2580   4.917   4.577   6.107
 1684W        W 2581   5.090   2.202   1.444
 1685W        W 2582   4.726   6.268   3.282
 1686W        W 2583   2.015   3.447   4.292
 1687W        W 2584   0.942   0.045   7.397
 1688W        W 2585   1.862   7.796   7.231
 1689W        W 2586   4.214   6.426   0.818
 1690W        W 2587   0.938   2.908   6.753
 1691W        W 2588   4.512   0.027   1.725
 1692W        W 2589   6.610   2.008   7.665
 1693W        W 2590   5.943   7.490   2.121
 1694W        W 2591   3.714   6.869   0.295
 1695W        W 2592   2.308   3.787   7.320
 1696W        W 2593   2.179   4.201   5.958
 1697W        W 2594   4.270   4.141   6.190
 1698W        W 2595   4.616   1.846   1.382
 1699W        W 2596   2.951   1.450   3.834
 1700W        W 2597   1.293   4.122   1.702
 1701W        W 2598   1.215   3.061   5.914
 1702W        W 2599   1.364   0.711   1.909
 1703W        W 2600   0.721   5.963   5.409
 1704W        W 2601   2.170   4.913   3.719
 1705W        W 2602   5.205   3.388   0.588
 1706W        W 2603   4.047   6.348   3.892
 1707W        W 2604   4.296   3.258   4.496
 1708W        W 2605   5.036   3.868   1.023
 1709W        W 2606   2.112   6.221   4.236
 1710W        W 2607   6.383   1.554   7.511
 1711W        W 2608   3.671   7.465   4.715
 1712W        W 2609   4.329   4.651   0.978
 1713W        W 2610   0.715   6.990   4.646
 1714W        W 2611   4.883   4.704   7.157
 1715W        W 2612   6.255   2.020   4.540
 1716W        W 2613   0.548   2.462   1.569
 1717W        W 2614   4.487   5.047   1.235
 1718W        W 2615   2.230   5.879   0.403
 1719W        W 2616   1.522   4.102   4.276
 1720W        W 2617   0.988   3.514   5.086
 1721W        W 2618   2.072   5.509   5.415
 1722W        W 2619   6.074   4.177   2.809
 1723W        W 2620   4.080   4.237   6.683
 1724W        W 2621   4.665   1.165   0.297
 1725W        W 2622   0.621   6.282   2.585
 1726W        W 2623   4.929   5.654   6.654
 1727W        W 2624   4.505   1.092   6.669
 1728W        W 2625   0.290   6.139   6.042
 1729W        W 2626   6.005   7.506   5.724
 1730W        W 2627   3.982   4.589   2.126
 1731W        W 2628   5.631   0.344   2.737
 1732W        W 2629   5.580   7.423   4.392
 1733W        W 2630   5.927   2.244   2.715
 1734W        W 2631   5.787   1.949   5.289
 1735W        W 2632   3.972   0.976   2.861
 1736W        W 2633   7.447   6.249   5.807
 1737W        W 2634   7.803   0.754   4.114
 1738W        W 2635   4.717   4.169   0.270
 1739W        W 2636   0.612   7.069   7.615
 1740W        W 2637   2.352   5.459   0.670
 1741W        W 2638   1.368   7.756   1.100
 1742W        W 2639   4.551   5.998   4.611
 1743W        W 2640   0.932   1.536   7.806
 1744W        W 2641   1.355   7.960   7.427
 1745W        W 2642   3.856   3.053   6.327
 1746W        W 2643   7.390   6.099   1.076
 1747W        W 2644   4.447   4.458   4.385
 1748W        W 2645   6.983   6.902   2.143
 1749W        W 2646   3.032   2.300   0.911
 1750W        W 2647   3.312   3.741   7.089
 1751W        W 2648   3.918   2.826   0.213
 1752W        W 2649   3.806   6.906   2.221
 1753W        W 2650   7.464   4.337   1.413
 1754W        W 2651   6.781   5.229   7.787
 1755W        W 2652   0.824   4.641   7.502
 1756W        W 2653   3.539   2.936   6.742
 1757W        W 2654   0.809   6.249   6.416
 1758W        W 2655   1.505   1.445   5.910
 1759W        W 2656   6.421   3.439   1.378
 1760W        W 2657   2.523   3.767   3.990
 1761W        W 2658   5.718   6.797   7.143
 1762W        W 2659   4.141   2.110   4.654
 1763W        W 2660   3.156   3.795   2.145
 1764W        W 2661   7.337   2.077   0.571
 1765W        W 2662   7.699   6.299   0.657
 1766W        W 2663   5.039   2.898   5.793
 1767W        W 2664   6.321   3.321   0.828
 1768W        W 2665   4.276   5.978   5.638
 1769W        W 2666   1.000   2.528   3.516
 1770W        W 2667   5.976   1.385   1.665
 1771W        W 2668   2.449   1.452   6.961
 1772W        W 2669   7.434   7.999   7.757
 1773W        W 2670   6.953   3.751   4.740
 1774W        W 2671   3.286   7.186   5.262
 1775W        W 2672   3.228   1.384   4.333
 1776W        W 2673   4.507   1.992   3.671
 1777W        W 2674   4.557   0.474   6.112
 1778W        W 2675   2.732   1.795   4.676
 1779W        W 2676   6.096   7.198   1.694
 1780W        W 2677   3.501   5.123   1.203
 1781W        W 2678   0.218   3.341   0.548
 1782W        W 2679   1.149   1.280   0.176
 1783W        W 2680   6.651   5.012   3.663
 1784W        W 2681   2.243   6.374   6.846
 1785W        W 2682   3.839   5.018   1.902
 1786W        W 2683   6.737   1.683   5.535
 1787W        W 2684   2.236   1.807   3.504
 1788W        W 2685   3.303   4.917   6.917
 1789W        W 2686   6.465   4.263   1.682
 1790W        W 2687   4.609   3.604   7.491
 1791W        W 2688   0.145   7.014   7.565
 1792W        W 2689   6.803   1.985   6.028
 1793W        W 2690   5.795   7.642   5.286
 1794W        W 2691   6.118   6.671   2.613
 1795W        W 2692   1.076   6.421   0.699
 1796W        W 2693   3.646   5.627   4.519
 1797W        W 2694   0.041   3.567   4.054
 1798W        W 2695   7.584   1.423   3.453
 1799W        W 2696   5.750   0.903   2.899
 1800W        W 2697   5.680   3.808   3.481
 1801W        W 2698   2.062   0.753   5.628
 1802W        W 2699   6.958   3.903   5.267
 1803W        W 2700   1.268   3.395   4.717
 1804W        W 2701   4.620   4.195   1.225
 1805W        W 2702   0.701   2.712   7.109
 1806W        W 2703   0.211   6.146   2.027
 1807W        W 2704   4.886   3.186   5.348
 1808W        W 2705   0.096   0.840   5.805
 1809W        W 2706   3.081   6.574   6.422
 1810W        W 2707   0.478   5.827   0.451
 1811W        W 2708   5.625   4.828   4.497
 1812W        W 2709   1.130   4.680   3.813
 1813W        W 2710   5.034   5.779   4.941
 1814W        W 2711   7.385   6.463   0.108
 1815W        W 2712   0.993   4.627   2.170
 1816W        W 2713   1.239   3.952   2.832
 1817W        W 2714   4.080   1.861   5.925
 1818W        W 2715   0.039   1.014   4.501
 1819W        W 2716   3.275   5.192   5.873
 1820W        W 2717   6.354   2.104   5.081
 1821W        W 2718   1.212   4.380   1.303
 1822W        W 2719   6.844   4.263   6.637
 1823W        W 2720   0.263   5.949   2.745
 1824W        W 2721   4.371   5.161   7.115
 1825W        W 2722   5.958   1.234   0.640
 1826W        W 2723   3.764   1.533   2.223
 1827W        W 2724   5.474   0.387   4.764
 1828W        W 2725   7.461   4.369   3.499
 1829W        W 2726   5.412   4.293   0.654
 1830W        W 2727   5.084   2.527   6.522
 1831W        W 2728   2.245   1.882   6.034
 1832W        W 2729   1.216   2.837   3.160
 1833W        W 2730   3.278   0.957   6.817
 1834W        W 2731   7.207   7.464   0.255
 1835W        W 2732   5.989   2.246   0.315
 1836W        W 2733   7.474   4.896   3.837
 1837W        W 2734   0.162   5.335   3.125
 1838W        W 2735   0.639   0.516   3.984
 1839W        W 2736   5.772   5.408   1.892
 1840W        W 2737   0.563   6.360   6.866
 1841W        W 2738   1.679   3.131   3.960
 1842W        W 2739   4.232   7.719   1.172
 1843W        W 2740   0.231   0.396   6.987
 1844W        W 2741   4.848   2.928   6.281
 1845W        W 2742   1.862   5.139   2.330
 1846W        W 2743   5.347   1.805   7.285
 1847W        W 2744   5.484   5.382   1.431
 1848W        W 2745   4.147   1.825   2.859
 1849W        W 2746   2.121   5.639   6.736
 1850W        W 2747   0.173   6.455   2.522
 1851W        W 2748   3.278   2.746   0.980
 1852W        W 2749   0.910   2.543   2.820
 1853W        W 2750   7.288   0.628   2.954
 1854W        W 2751   5.340   0.979   6.624
 1855W        W 2752   6.087   0.257   5.507
 1856W        W 2753   1.905   5.102   4.144
 1857W        W 2754   6.699   5.577   6.068
 1858W        W 2755   1.514   6.414   4.897
 1859W        W 2756   7.590   4.065   6.029
 1860W        W 2757   7.778   2.212   3.494
 1861W        W 2758   2.633   6.592   6.671
 1862W        W 2759   7.014   0.758   5.575
 1863W        W 2760   3.049   3.194   0.397
 1864W        W 2761   7.161   2.308   6.846
 1865W        W 2762   5.751   4.509   2.904
 1866W        W 2763   1.516   6.114   0.282
 1867W        W 2764   0.508   3.635   5.074
 1868W        W 2765   5.797   3.576   0.022
 1869W        W 2766   6.622   0.755   5.958
 1870W        W 2767   2.197   0.056   1.894
 1871W        W 2768   3.004   6.184   6.099
 1872W        W 2769   1.817   4.992   1.822
 1873W        W 2770   4.865   2.099   6.601
 1874W        W 2771   5.454   0.482   0.221
 1875W        W 2772   3.931   4.829   6.378
 1876W        W 2773   4.674   1.634   4.049
 1877W        W 2774   4.324   1.275   2.658
 1878W        W 2775   6.648   5.476   3.956
 1879W        W 2776   3.206   0.200   7.426
 1880W        W 2777   3.348   5.392   4.159
 1881W        W 2778   6.829   1.081   2.116
 1882W        W 2779   3.873   3.403   4.280
 1883W        W 2780   0.250   5.444   2.615
 1884W        W 2781   2.171   3.129   1.158
 1885W        W 2782   0.761   5.834   1.365
 1886W        W 2783   2.897   5.189   1.945
 1887W        W 2784   6.924   5.663   7.516
 1888W        W 2785   0.252   6.321   5.505
 1889W        W 2786   0.999   1.575   1.240
 1890W        W 2787   2.669   5.857   0.711
 1891W        W 2788   2.109   6.761   4.220
 1892W        W 2789   1.855   0.008   4.644
 1893W        W 2790   1.808   0.282   6.695
 1894W        W 2791   4.581   3.576   0.203
 1895W        W 2792   1.275   3.983   5.953
 1896W        W 2793   7.166   7.340   7.073
 1897W        W 2794   4.955   7.670   5.810
 1898W        W 2795   6.068   6.120   1.895
 1899W        W 2796   3.845   4.224   0.864
 1900W        W 2797   4.206   1.064   4.467
 1901W        W 2798   3.553   7.069   3.098
 1902W        W 2799   0.902   5.098   5.379
 1903W        W 2800   6.828   2.538   2.613
 1904W        W 2801   7.382   1.826   7.628
 1905W        W 2802   7.585   2.101   4.553
 1906W        W 2803   0.652   1.996   3.002
 1907W        W 2804   3.335   7.377   3.873
 1908W        W 2805   1.988   3.482   3.790
 1909W        W 2806   6.788   4.567   1.136
 1910W        W 2807   6.986   1.091   7.327
 1911W        W 2808   6.021   2.005   3.662
 1912W        W 2809   3.232   3.637   1.184
 1913W        W 2810   7.208   6.114   2.773
 1914W        W 2811   5.125   4.333   6.740
 1915W        W 2812   4.933   3.135   0.230
 1916W        W 2813   5.919   0.474   3.160
 1917W        W 2814   6.694   0.054   2.632
 1918W        W 2815   4.480   4.619   1.488
 1919W        W 2816   7.046   1.351   2.748
 1920W        W 2817   3.568   5.426   3.695
 1921W        W 2818   1.183   2.925   4.479
 1922W        W 2819   5.804   2.326   4.417
 1923W        W 2820   2.377   6.324   2.837
 1924W        W 2821   2.756   1.468   7.538
 1925W        W 2822   4.930   2.152   0.417
 1926W        W 2823   1.365   5.575   2.878
 1927W        W 2824   5.550   0.934   0.903
 1928W        W 2825   1.994   3.242   5.618
 1929W        W 2826   3.090   7.742   7.182
 1930W        W 2827   4.484   4.262   1.770
 1931W        W 2828   2.129   7.321   4.267
 1932W        W 2829   6.337   6.748   3.548
 1933W        W 2830   4.734   1.451   7.433
 1934W        W 2831   5.458   7.250   7.553
 1935W        W 2832   5.494   0.598   4.215
 1936W        W 2833   4.716   6.765   3.543
 1937W        W 2834   1.042   4.241   4.080
 1938W        W 2835   7.744   3.892   3.563
 1939W        W 2836   0.779   0.999   0.453
 1940W        W 2837   5.931   6.818   6.623
 1941W        W 2838   1.308   3.509   7.007
 1942W        W 2839   2.386   7.083   7.388
 1943W        W 2840   3.083   3.534   2.502
 1944W        W 2841   1.068   6.386   6.983
 1945W        W 2842   5.890   4.705   6.356
 1946W        W 2843   1.669   5.554   4.272
 1947W        W 2844   0.538   5.265   0.141
 1948W        W 2845   6.805   6.437   2.152
 1949W        W 2846   3.837   6.798   3.835
 1950W        W 2847   7.790   7.073   6.995
 1951W        W 2848   4.247   6.437   7.319
 1952W        W 2849   7.244   0.813   4.263
 1953W        W 2850   5.303   5.041   3.127
 1954W        W 2851   2.739   3.922   6.057
 1955W        W 2852   1.110   3.821   1.276
 1956W        W 2853   1.421   1.628   3.957
 1957W        W 2854   0.104   6.058   0.834
 1958W        W 2855   5.507   5.082   5.500
 1959W        W 2856   3.947   3.026   4.696
 1960W        W 2857   5.989   6.834   2.167
 1961W        W 2858   1.529   5.814   1.707
 1962W        W 2859   6.769   6.851   5.832
 1963W        W 2860   6.058   0.478   4.867
 1964W        W 2861   4.480   1.822   4.931
 1965W        W 2862   4.725   0.042   3.589
 1966W        W 2863   7.475   1.578   0.488
 1967W        W 2864   1.804   0.351   5.506
 1968W        W 2865   1.537   7.087   1.849
 1969W        W 2866   6.088   4.661   1.547
 1970W        W 2867   5.708   1.903   0.037
 1971W        W 2868   5.630   6.787   1.121
 1972W        W 2869   4.373   0.793   0.964
 1973W        W 2870   4.092   1.777   3.399
 1974W        W 2871   0.644   2.928   1.359
 1975W        W 2872   6.453   3.035   7.293
 1976W        W 2873   4.664   1.779   1.867
 1977W        W 2874   6.258   2.288   0.773
 1978W        W 2875   5.886   0.027   5.063
 1979W        W 2876   0.372   2.585   6.091
 1980W        W 2877   0.018   7.813   7.121
 1981W        W 2878   7.154   1.682   3.069
 1982W        W 2879   1.520   5.386   2.095
 1983W        W 2880   1.019   1.694   5.050
 1984W        W 2881   2.013   0.075   6.290
 1985W        W 2882   7.173   7.619   3.381
 1986W        W 2883   7.083   1.412   3.457
 1987W        W 2884   2.583   0.053   0.162
 1988W        W 2885   2.198   3.979   4.941
 1989W        W 2886   7.267   2.039   4.888
 1990W        W 2887   7.338   6.605   1.920
 1991W        W 2888   5.544   1.009   4.693
 1992W        W 2889   1.641   7.805   5.591
 1993W        W 2890   6.616   3.000   2.510
 1994W        W 2891   1.498   6.300   7.258
 1995W        W 2892   1.089   0.951   6.147
 1996W        W 2893   7.814   6.561   6.840
 1997W        W 2894   4.960   4.899   5.403
 1998W        W 2895   3.399   1.465   7.873
 1999W        W 2896   4.192   6.397   4.677
 2000W        W 2897   0.905   2.939   1.780
 2001W        W 2898   6.565   5.266   1.696
 2002W        W 2899   2.230   5.745   7.698
 2003W        W 2900   1.069   1.086   6.610
 2004W        W 2901   2.942   1.370   0.471
 2005W        W 2902   7.490   3.705   5.539
 2006W        W 2903   7.928   7.158   1.884
 2007W        W 2904   3.392   6.196   5.279
 2008W        W 2905   6.058   4.792   2.478
 2009W        W 2906   2.781   0.949   5.994
 2010W        W 2907   6.084   7.280   4.401
 2011W        W 2908   6.257   2.546   7.049
 2012W        W 2909   4.510   0.641   0.463
 2013W        W 2910   3.231   4.870   3.951
 2014W        W 2911   3.359   7.246   2.620
 2015W        W 2912   1.914   4.505   0.423
 2016W        W 2913   4.808   0.959   5.238
 2017W        W 2914   6.547   1.250   2.513
 2018W        W 2915   3.953   4.801   4.660
 2019W        W 2916   3.942   5.517   7.113
 2020W        W 2917   2.064   5.285   4.671
 2021W        W 2918   0.980   5.934   6.746
 2022W        W 2919   2.474   4.554   3.569
 2023W        W 2920   4.230   3.791   5.564
 2024W        W 2921   7.683   7.643   1.674
 2025W        W 2922   4.058   2.877   5.157
 2026W        W 2923   0.227   0.752   3.516
 2027W        W 2924   2.263   0.605   6.523
 2028W        W 2925   0.232   0.842   4.000
 2029W        W 2926   6.693   0.490   2.870
 2030W        W 2927   2.684   4.019   1.933
 2031W        W 2928   2.143   5.431   0.147
 2032W        W 2929   4.020   3.477   7.739
 2033W        W 2930   2.827   0.854   6.900
 2034W        W 2931   0.162   1.208   6.194
 2035W        W 2932   4.949   4.012   3.649
 2036W        W 2933   0.939   2.608   1.054
 2037W        W 2934   6.930   3.290   1.548
 2038W        W 2935   5.167   2.924   7.698
 2039W        W 2936   6.875   2.443   7.941
 2040W        W 2937   2.224   7.372   2.325
 2041W        W 2938   0.232   0.326   0.117
 2042W        W 2939   6.595   7.303   4.501
 2043W        W 2940   7.065   3.438   6.826
 2044W        W 2941   2.483   2.831   2.485
 2045W        W 2942   7.006   7.441   1.834
 2046W        W 2943   2.497   5.128   0.319
 2047W        W 2944   5.769   2.356   6.202
 2048W        W 2945   4.160   1.781   2.363
 2049W        W 2946   6.145   3.224   7.673
 2050W        W 2947   5.229   1.415   3.787
 2051W        W 2948   7.013   5.180   2.507
 2052W        W 2949   2.883   2.815   3.299
 2053W        W 2950   4.945   3.942   1.648
 2054W        W 2951   6.393   6.526   5.815
 2055W        W 2952   2.329   1.970   4.965
 2056W        W 2953   1.610   4.718   1.373
 2057W        W 2954   1.421   4.692   0.411
 2058W        W 2955   5.711   2.009   6.919
 2059W        W 2956   3.969   2.968   3.260
 2060W        W 2957   0.714   2.734   4.520
 2061W        W 2958   0.895   3.346   2.040
 2062W        W 2959   3.964   0.095   7.596
 2063W        W 2960   6.964   1.535   2.299
 2064W        W 2961   1.916   6.162   6.509
 2065W        W 2962   0.810   3.740   4.701
 2066W        W 2963   3.886   2.596   6.532
 2067W        W 2964   4.173   0.688   4.726
 2068W        W 2965   0.879   4.754   4.268
 2069W        W 2966   2.978   5.242   6.632
 2070W        W 2967   7.896   6.912   3.206
 2071W        W 2968   5.367   4.123   7.115
 2072W        W 2969   6.887   0.308   4.326
 2073W        W 2970   7.839   1.862   0.694
 2074W        W 2971   6.764   7.893   6.301
 2075W        W 2972   2.869   5.454   3.157
 2076W        W 2973   6.100   5.880   4.204
 2077W        W 2974   5.428   4.338   6.311
 2078W        W 2975   0.696   2.593   5.201
 2079W        W 2976   4.785   7.683   3.005
 2080W        W 2977   3.725   7.776   2.289
 2081W        W 2978   3.485   1.510   4.750
 2082W        W 2979   6.052   5.610   7.202
 2083W        W 2980   5.561   2.458   2.033
 2084W        W 2981   3.345   1.759   6.980
 2085W        W 2982   7.265   3.383   4.131
 2086W        W 2983   0.897   2.437   1.927
 2087W        W 2984   6.744   5.944   5.570
 2088W        W 2985   5.191   4.403   4.922
 2089W        W 2986   4.155   3.388   0.822
 2090W        W 2987   1.011   4.268   3.553
 2091W        W 2988   4.041   0.098   2.881
 2092W        W 2989   1.931   5.643   1.890
 2093W        W 2990   5.443   6.904   6.586
 2094W        W 2991   5.150   4.302   1.191
 2095W        W 2992   0.950   7.602   7.897
 2096W        W 2993   2.175   4.301   4.528
 2097W        W 2994   4.747   2.482   2.916
 2098W        W 2995   7.028   7.809   1.031
 2099W        W 2996   5.490   1.311   1.813
 2100W        W 2997   1.715   3.751   2.946
 2101W        W 2998   1.969   0.800   7.492
 2102W        W 2999   4.339   5.586   4.381
 2103W        W 3000   5.755   4.057   4.010
 2104W        W 3001   6.375   0.152   3.029
 2105W        W 3002   6.007   2.726   6.585
 2106W        W 3003   6.940   7.160   3.148
 2107W        W 3004   2.343   4.822   4.155
 2108W        W 3005   0.904   0.203   6.894
 2109W        W 3006   6.977   2.464   1.216
 2110W        W 3007   4.050   4.918   1.443
 2111W        W 3008   1.003   7.335   3.802
 2112W        W 3009   7.680   2.976   3.495
 2113W        W 3010   6.036   4.268   4.576
 2114W        W 3011   7.041   7.097   7.540
 2115W        W 3012   0.184   4.545   7.415
 2116W        W 3013   3.354   2.013   1.790
 2117W        W 3014   2.150   0.807   5.092
 2118W        W 3015   5.449   2.810   6.303
 2119W        W 3016   0.665   0.563   4.547
 2120W        W 3017   5.555   7.621   7.290
 2121W        W 3018   3.691   5.193   2.841
 2122W        W 3019   6.516   0.704   5.207
 2123W        W 3020   7.685   3.752   0.675
 2124W        W 3021   7.342   4.455   4.127
 2125W        W 3022   0.872   0.546   1.706
 2126W        W 3023   7.572   0.771   0.087
 2127W        W 3024   3.516   5.082   0.621
 2128W        W 3025   5.756   2.698   0.226
 2129W        W 3026   6.722   6.583   0.658
 2130W        W 3027   1.899   2.264   4.275
 2131W        W 3028   6.558   6.847   0.143
 2132W        W 3029   0.443   7.415   7.157
 2133W        W 3030   1.786   7.842   0.605
 2134W        W 3031   1.247   2.453   5.273
 2135W        W 3032   1.708   0.644   5.006
 2136W        W 3033   5.907   4.243   7.130
 2137W        W 3034   6.799   7.672   5.475
 2138W        W 3035   0.806   3.828   6.025
 2139W        W 3036   5.073   7.462   4.394
 2140W        W 3037   6.397   7.263   3.116
 2141W        W 3038   3.310   5.472   0.875
 2142W        W 3039   5.725   3.801   4.419
 2143W        W 3040   4.911   1.143   4.080
 2144W        W 3041   3.717   5.742   5.093
 2145W        W 3042   4.792   2.132   4.068
 2146W        W 3043   1.492   0.154   5.789
 2147W        W 3044   1.078   7.080   2.087
 2148W        W 3045   0.613   0.002   0.178
 2149W        W 3046   6.871   3.910   6.229
 2150W        W 3047   2.419   6.278   0.534
 2151W        W 3048   7.835   2.327   2.343
 2152W        W 3049   4.846   5.551   4.475
 2153W        W 3050   5.207   3.082   6.648
 2154W        W 3051   3.010   2.529   6.167
 2155W        W 3052   1.520   3.293   3.084
 2156W        W 3053   2.634   6.972   4.249
 2157W        W 3054   7.788   2.970   6.560
 2158W        W 3055   4.204   0.818   0.112
 2159W        W 3056   6.707   0.517   4.802
 2160W        W 3057   4.422   0.979   3.282
 2161W        W 3058   4.621   4.225   5.770
 2162W        W 3059   1.565   6.430   4.329
 2163W        W 3060   0.408   0.875   3.054
 2164W        W 3061   6.818   5.697   1.894
 2165W        W 3062   4.923   0.493   1.603
 2166W        W 3063   5.080   6.180   0.174
 2167W        W 3064   1.728   0.347   1.988
 2168W        W 3065   1.136   2.339   1.479
 2169W        W 3066   4.916   3.628   2.192
 2170W        W 3067   6.431   2.981   4.706
 2171W        W 3068   4.453   1.194   1.762
 2172W        W 3069   3.291   6.397   4.633
 2173W        W 3070   6.050   6.236   2.412
 2174W        W 3071   0.318   6.306   3.936
 2175W        W 3072   0.132   4.937   6.495
 2176W        W 3073   1.314   4.224   6.464
 2177W        W 3074   5.599   6.659   2.415
 2178W        W 3075   6.858   0.999   4.632
 2179W        W 3076   6.632   4.112   7.472
 2180W        W 3077   4.568   6.102   7.586
 2181W        W 3078   6.335   5.825   4.635
 2182W        W 3079   4.731   1.141   2.898
 2183W        W 3080   1.793   7.700   4.061
 2184W        W 3081   0.518   0.560   5.704
 2185W        W 3082   3.605   6.627   0.859
 2186W        W 3083   7.566   3.554   1.996
 2187W        W 3084   5.644   4.654   5.854
 2188W        W 3085   6.440   5.876   3.756
 2189W        W 3086   7.455   4.821   1.507
 2190W        W 3087   7.360   2.670   0.803
 2191W        W 3088   3.747   0.504   7.963
 2192W        W 3089   3.042   6.882   7.897
 2193W        W 3090   4.836   0.914   2.460
 2194W        W 3091   4.485   1.081   3.947
 2195W        W 3092   7.461   0.564   5.467
 2196W        W 3093   1.196   2.100   3.814
 2197W        W 3094   2.814   2.144   1.301
 2198W        W 3095   7.560   2.897   0.353
 2199W        W 3096   4.115   3.401   3.527
 2200W        W 3097   4.010   0.363   7.172
 2201W        W 3098   2.665   1.281   2.603
 2202W        W 3099   6.451   7.251   5.908
 2203W        W 3100   4.643   2.299   1.643
 2204W        W 3101   5.734   6.775   3.586
 2205W        W 3102   3.903   3.805   0.033
 2206W        W 3103   1.245   1.892   7.627
 2207W        W 3104   6.143   5.036   1.992
 2208W        W 3105   3.060   7.139   1.803
 2209W        W 3106   0.136   7.306   4.068
 2210W        W 3107   7.712   2.916   1.059
 2211W        W 3108   3.713   3.025   7.632
 2212W        W 3109   4.830   5.991   4.145
 2213W        W 3110   6.293   5.731   2.574
 2214W        W 3111   6.619   6.289   4.656
 2215W        W 3112   6.605   0.380   5.674
 2216W        W 3113   1.946   6.233   2.305
 2217W        W 3114   6.194   2.331   4.114
 2218W        W 3115   6.335   2.501   4.544
 2219W        W 3116   7.197   7.111   5.707
 2220W        W 3117   3.845   7.229   3.597
 2221W        W 3118   1.483   2.462   2.911
 2222W        W 3119   7.127   5.552   6.250
 2223W        W 3120   6.832   3.459   3.281
 2224W        W 3121   2.259   4.979   2.707
 2225W        W 3122   1.927   5.742   3.512
 2226W        W 3123   4.527   7.290   3.814
 2227W        W 3124   4.809   7.388   6.248
 2228W        W 3125   2.419   6.193   7.567
 2229W        W 3126   1.471   1.984   5.645
 2230W        W 3127   6.239   7.153   2.653
 2231W        W 3128   6.896   5.240   6.613
 2232W        W 3129   0.248   6.419   4.520
 2233W        W 3130   5.987   6.706   4.450
 2234W        W 3131   4.150   6.563   3.433
 2235W        W 3132   5.853   5.479   3.467
 2236W        W 3133   5.027   6.128   3.666
 2237W        W 3134   1.676   0.131   1.333
 2238W        W 3135   6.952   7.493   2.838
 2239W        W 3136   6.462   3.965   1.228
 2240W        W 3137   6.478   7.410   2.230
 2241W        W 3138   2.854   6.739   5.971
 2242W        W 3139   4.171   7.735   0.390
 2243W        W 3140   3.951   3.773   3.846
 2244W        W 3141   3.476   6.216   6.247
 2245W        W 3142   4.144   1.086   0.563
 2246W        W 3143   5.976   4.273   1.778
 2247W        W 3144   4.231   3.468   6.724
 2248W        W 3145   7.483   5.725   2.533
 2249W        W 3146   4.136   3.286   2.536
 2250W        W 3147   0.953   1.296   4.738
 2251W        W 3148   4.059   6.338   7.776
 2252W        W 3149   6.695   3.304   5.453
 2253W        W 3150   4.039   0.591   4.170
 2254W        W 3151   2.926   2.115   7.123
 2255W        W 3152   5.555   3.660   3.024
 2256W        W 3153   2.376   4.450   5.033
 2257W        W 3154   2.247   4.159   6.946
 2258W        W 3155   5.390   3.030   1.382
 2259W        W 3156   6.106   2.278   6.644
 2260W        W 3157   2.685   5.626   4.663
 2261W        W 3158   4.984   1.447   5.905
 2262W        W 3159   7.443   7.093   3.193
 2263W        W 3160   5.739   3.897   4.912
 2264W        W 3161   1.410   4.859   2.240
 2265W        W 3162   4.997   3.088   4.195
 2266W        W 3163   2.423   0.289   3.616
 2267W        W 3164   1.099   2.567   4.093
 2268W        W 3165   1.967   3.293   3.298
 2269W        W 3166   1.714   3.865   5.086
 2270W        W 3167   6.123   4.246   6.524
 2271W        W 3168   5.037   5.659   3.284
 2272W        W 3169   7.133   3.427   5.196
 2273W        W 3170   3.029   1.021   7.718
 2274W        W 3171   6.670   6.111   7.621
 2275W        W 3172   7.219   4.737   3.237
 2276W        W 3173   7.135   7.534   6.400
 2277W        W 3174   4.574   3.697   5.924
 2278W        W 3175   5.652   6.236   1.100
 2279W        W 3176   1.544   0.199   5.038
 2280W        W 3177   2.841   6.672   1.246
 2281W        W 3178   1.278   3.882   4.863
 2282W        W 3179   5.001   5.580   7.208
 2283W        W 3180   6.966   4.513   7.226
 2284W        W 3181   5.764   7.175   5.399
 2285W        W 3182   4.330   1.230   4.911
 2286W        W 3183   1.903   2.693   0.976
 2287W        W 3184   5.820   0.175   0.058
 2288W        W 3185   0.478   6.759   5.044
 2289W        W 3186   4.043   5.097   0.883
 2290W        W 3187   5.302   6.684   0.721
 2291W        W 3188   5.586   1.293   3.450
 2292W        W 3189   0.690   5.426   4.971
 2293W        W 3190   2.518   0.477   4.889
 2294W        W 3191   0.700   3.652   7.780
 2295W        W 3192   3.209   1.862   4.540
 2296W        W 3193   1.488   5.189   6.388
 2297W        W 3194   1.044   1.307   4.171
 2298W        W 3195   3.809   7.745   2.842
 2299W        W 3196   6.523   5.783   7.263
 2300W        W 3197   3.752   0.503   6.073
 2301W        W 3198   7.441   5.738   4.790
 2302W        W 3199   0.513   1.830   4.811
 2303W        W 3200   4.783   6.740   2.770
 2304W        W 3201   3.101   5.711   1.584
 2305W        W 3202   5.246   2.146   3.864
 2306W        W 3203   0.525   2.920   5.693
 2307W        W 3204   6.967   2.028   1.001
 2308W        W 3205   4.198   2.082   1.728
 2309W        W 3206   2.406   5.881   1.700
 2310W        W 3207   4.833   2.440   3.589
 2311W        W 3208   3.858   0.726   2.009
 2312W        W 3209   1.931   6.158   1.784
 2313W        W 3210   2.208   0.347   1.461
 2314W        W 3211   5.854   4.893   3.268
 2315W        W 3212   2.459   0.814   2.590
 2316W        W 3213   6.746   2.628   6.981
 2317W        W 3214   7.754   1.383   6.869
 2318W        W 3215   7.678   3.352   3.801
 2319W        W 3216   3.599   4.221   3.202
 2320W        W 3217   4.835   6.475   6.102
 2321W        W 3218   0.333   0.955   2.018
 2322W        W 3219   6.668   1.202   5.647
 2323W        W 3220   5.373   4.605   5.382
 2324W        W 3221   2.251   4.376   7.539
 2325W        W 3222   4.640   3.769   4.008
 2326W        W 3223   1.031   7.581   2.617
 2327W        W 3224   1.216   3.720   3.284
 2328W        W 3225   6.590   5.412   2.234
 2329W        W 3226   6.456   1.651   3.801
 2330W        W 3227   6.677   7.587   0.570
 2331W        W 3228   4.944   2.586   4.064
 2332W        W 3229   4.989   1.796   3.641
 2333W        W 3230   5.051   0.339   4.028
 2334W        W 3231   3.642   3.473   2.554
 2335W        W 3232   3.650   0.017   5.881
 2336W        W 3233   1.544   5.166   0.676
 2337W        W 3234   4.218   7.699   3.800
 2338W        W 3235   0.378   6.253   4.988
 2339W        W 3236   7.775   6.169   2.697
 2340W        W 3237   6.416   1.033   4.864
 2341W        W 3238   0.429   1.961   2.520
 2342W        W 3239   4.657   2.781   7.385
 2343W        W 3240   2.210   7.171   6.605
 2344W        W 3241   7.815   3.313   6.166
 2345W        W 3242   6.936   1.818   5.127
 2346W        W 3243   0.129   3.465   3.483
 2347W        W 3244   7.636   6.668   2.387
 2348W        W 3245   2.842   3.989   1.144
 2349W        W 3246   1.386   7.552   7.050
 2350W        W 3247   3.419   3.750   6.563
 2351W        W 3248   2.886   6.345   3.040
 2352W        W 3249   2.489   5.551   3.482
 2353W        W 3250   6.005   6.215   4.596
 2354W        W 3251   7.345   7.023   2.639
 2355W        W 3252   4.665   0.310   2.633
 2356W        W 3253   7.587   2.137   1.851
 2357W        W 3254   1.426   4.453   7.332
 2358W        W 3255   1.582   1.811   6.262
 2359W        W 3256   7.780   3.028   2.000
 2360W        W 3257   5.125   4.773   4.623
 2361W        W 3258   5.635   0.753   5.704
 2362W        W 3259   6.228   5.542   5.016
 2363W        W 3260   2.889   1.781   2.951
 2364W        W 3261   6.794   5.913   0.044
 2365W        W 3262   3.796   7.309   6.534
 2366W        W 3263   3.983   2.134   7.231
 2367W        W 3264   3.016   0.458   6.063
 2368W        W 3265   4.167   2.570   2.006
 2369W        W 3266   7.516   3.142   2.407
 2370W        W 3267   6.396   3.310   4.315
 2371W        W 3268   4.122   0.905   3.715
 2372W        W 3269   5.216   2.380   5.041
 2373W        W 3270   3.280   5.508   2.105
 2374W        W 3271   6.948   5.027   1.369
 2375W        W 3272   1.845   4.741   3.263
 2376W        W 3273   7.701   6.138   2.143
 2377W        W 3274   5.475   5.899   7.382
 2378W        W 3275   1.669   4.319   6.824
 2379W        W 3276   3.161   6.835   0.380
 2380W        W 3277   4.757   3.484   4.378
 2381W        W 3278   0.737   3.278   4.419
 2382W        W 3279   2.713   1.525   3.347
 2383W        W 3280   6.111   6.953   5.798
 2384W        W 3281   2.654   5.614   5.578
 2385W        W 3282   0.277   2.676   4.247
 2386W        W 3283   0.895   0.387   2.244
 2387W        W 3284   1.253   7.497   6.562
 2388W        W 3285   0.079   3.171   7.051
 2389W        W 3286   5.721   2.465   5.275
 2390W        W 3287   7.246   2.710   7.094
 2391W        W 3288   0.382   2.418   2.772
 2392W        W 3289   6.748   0.224   3.354
 2393W        W 3290   7.149   4.594   1.848
 2394W        W 3291   7.420   6.188   3.252
 2395W        W 3292   2.365   4.870   1.741
 2396W        W 3293   2.344   5.361   3.023
 2397W        W 3294   4.668   2.637   5.943
 2398W        W 3295   0.714   0.625   1.251
 2399W        W 3296   6.664   1.625   4.260
 2400W        W 3297   6.093   2.588   7.528
 2401W        W 3298   2.472   4.007   7.906
 2402W        W 3299   5.545   7.827   1.351
 2403W        W 3300   0.124   0.319   5.971
 2404W        W 3301   3.785   5.977   1.942
 2405W        W 3302   0.616   5.456   4.477
 2406W        W 3303   6.089   6.457   7.037
 2407W        W 3304   4.948   4.407   4.291
 2408W        W 3305   0.982   5.379   3.104
 2409W        W 3306   1.874   6.790   5.058
 2410W        W 3307   7.388   7.790   0.654
 2411W        W 3308   5.809   3.002   6.001
 2412W        W 3309   5.939   0.068   0.571
 2413W        W 3310   5.789   1.072   3.986
 2414W        W 3311   1.422   7.697   1.736
 2415W        W 3312   0.399   6.776   7.109
 2416W        W 3313   2.571   6.662   5.562
 2417W        W 3314   1.515   5.928   3.133
 2418W        W 3315   0.562   5.079   2.993
 2419W        W 3316   0.048   2.331   1.604
 2420W        W 3317   5.876   3.898   5.409
 2421W        W 3318   1.970   3.726   1.046
 2422W        W 3319   6.328   3.468   2.389
 2423W        W 3320   7.739   4.039   4.773
 2424W        W 3321   7.054   3.440   6.324
 2425W        W 3322   0.449   6.542   6.282
 2426W        W 3323   1.876   1.648   5.698
 2427W        W 3324   0.422   0.924   4.851
 2428W        W 3325   3.531   5.749   1.316
 2429W        W 3326   5.920   3.782   2.504
 2430W        W 3327   4.475   6.827   5.437
 2431W        W 3328   1.503   1.777   7.208
 2432W        W 3329   3.046   5.043   3.254
 2433W        W 3330   0.611   1.831   6.543
 2434W        W 3331   6.870   7.807   7.817
 2435W        W 3332   0.260   2.685   6.922
 2436W        W 3333   1.723   7.499   2.662
 2437W        W 3334   5.693   3.337   6.945
 2438W        W 3335   1.849   1.647   2.752
 2439W        W 3336   0.535   3.169   6.935
 2440W        W 3337   4.471   3.153   5.026
 2441W        W 3338   1.766   0.051   7.825
 2442W        W 3339   2.558   7.414   1.910
 2443W        W 3340   0.105   3.608   2.334
 2444W        W 3341   0.006   4.725   1.240
 2445W        W 3342   5.667   1.540   7.806
 2446W        W 3343   5.573   7.132   2.179
 2447W        W 3344   3.560   7.734   1.169
 2448W        W 3345   7.490   5.391   5.845
 2449W        W 3346   6.955   5.023   1.962
 2450W        W 3347   2.977   3.056   5.062
 2451W        W 3348   0.345   7.358   4.519
 2452W        W 3349   4.143   5.910   4.855
 2453W        W 3350   6.805   5.598   0.408
 2454W        W 3351   7.418   0.932   6.603
 2455W        W 3352   6.976   0.385   5.312
 2456W        W 3353   7.733   5.711   0.834
 2457W        W 3354   2.811   0.996   3.451
 2458W        W 3355   1.947   3.795   2.443
 2459W        W 3356   0.812   1.661   2.568
 2460W        W 3357   4.363   5.885   3.957
 2461W        W 3358   3.529   3.205   7.190
 2462W        W 3359   4.083   5.937   0.694
 2463W        W 3360   5.164   0.648   5.404
 2464W        W 3361   4.376   6.682   0.408
 2465W        W 3362   3.604   2.147   6.891
 2466W        W 3363   1.018   7.369   0.304
 2467W        W 3364   0.497   7.269   5.866
 2468W        W 3365   4.168   1.601   1.884
 2469W        W 3366   1.307   0.519   7.608
 2470W        W 3367   3.632   4.877   5.559
 2471W        W 3368   1.813   1.007   5.984
 2472W        W 3369   6.402   2.012   1.215
 2473W        W 3370   6.800   6.619   4.339
 2474W        W 3371   7.448   2.473   3.769
 2475W        W 3372   5.906   1.622   7.385
 2476W        W 3373   3.027   5.059   0.292
 2477W        W 3374   5.255   0.737   2.779
 2478W        W 3375   1.573   6.450   1.006
 2479W        W 3376   5.969   5.424   0.189
 2480W        W 3377   5.937   4.965   0.338
 2481W        W 3378   0.337   0.353   1.144
 2482W        W 3379   0.361   1.744   7.038
 2483W        W 3380   5.133   6.178   1.843
 2484W        W 3381   5.234   1.069   5.671
 2485W        W 3382   4.977   0.911   0.710
 2486W        W 3383   6.265   4.616   0.497
 2487W        W 3384   0.693   2.947   6.170
 2488W        W 3385   0.556   1.485   3.769
 2489W        W 3386   5.365   5.581   1.020
 2490W        W 3387   5.735   7.279   4.881
 2491W        W 3388   0.565   5.424   2.066
 2492W        W 3389   0.652   7.721   6.337
 2493W        W 3390   4.213   6.881   7.181
 2494W        W 3391   5.180   2.272   4.394
 2495W        W 3392   6.424   0.415   7.258
 2496W        W 3393   3.671   0.622   3.031
 2497W        W 3394   2.970   3.943   0.026
 2498W        W 3395   1.914   5.865   0.026
 2499W        W 3396   7.019   2.481   5.075
 2500W        W 3397   1.423   7.909   2.635
 2501W        W 3398   5.348   3.596   5.300
 2502W        W 3399   2.742   3.623   7.659
 2503W        W 3400   2.320   0.459   7.355
 2504W        W 3401   2.188   4.181   5.445
 2505W        W 3402   2.401   7.662   2.614
 2506W        W 3403   2.248   3.767   3.332
 2507W        W 3404   2.496   0.292   6.236
 2508W        W 3405   5.732   7.474   3.623
 2509W        W 3406   7.351   5.460   0.594
 2510W        W 3407   4.112   5.575   5.922
 2511W        W 3408   6.792   3.656   4.180
 2512W        W 3409   4.207   2.737   1.044
 2513W        W 3410   2.364   0.408   5.367
 2514W        W 3411   1.558   7.899   6.714
 2515W        W 3412   7.105   2.168   5.639
 2516W        W 3413   6.606   0.809   6.475
 2517W        W 3414   3.922   1.346   3.645
 2518W        W 3415   7.095   3.638   1.883
 2519W        W 3416   3.593   1.170   1.919
 2520W        W 3417   2.097   5.184   6.334
 2521W        W 3418   5.229   7.800   4.676
 2522W        W 3419   3.425   4.146   7.431
 2523W        W 3420   4.193   1.589   4.560
 2524W        W 3421   4.607   1.358   4.465
 2525W        W 3422   4.005   6.727   5.289
 2526W        W 3423   6.422   1.648   5.957
 2527W        W 3424   0.075   6.754   4.087
 2528W        W 3425   5.718   2.274   3.918
 2529W        W 3426   5.662   4.097   6.666
 2530W        W 3427   1.393   2.884   0.928
 2531W        W 3428   3.058   2.220   2.966
 2532W        W 3429   0.782   4.666   5.703
 2533W        W 3430   5.589   7.199   3.195
 2534W        W 3431   5.912   6.695   5.431
 2535W        W 3432   4.046   4.061   1.727
 2536W        W 3433   3.890   2.319   1.078
 2537W        W 3434   5.753   5.306   4.319
 2538W        W 3435   0.234   1.455   4.714
 2539W        W 3436   5.437   7.804   5.547
 2540W        W 3437   4.380   7.188   1.236
 2541W        W 3438   1.379   4.820   5.301
 2542W        W 3439   0.570   7.420   0.092
 2543W        W 3440   7.607   1.091   5.214
 2544W        W 3441   1.402   5.197   2.583
 2545W        W 3442   5.702   2.681   2.897
 2546W        W 3443   5.216   4.017   4.122
 2547W        W 3444   2.675   1.722   1.055
 2548W        W 3445   6.451   5.179   0.423
 2549W        W 3446   1.880   6.525   1.425
 2550W        W 3447   0.325   7.020   6.262
 2551W        W 3448   2.681   5.839   6.015
 2552W        W 3449   1.731   4.155   1.392
 2553W        W 3450   6.251   4.524   3.358
 2554W        W 3451   2.871   3.415   5.350
 2555W        W 3452   0.198   5.841   5.600
 2556W        W 3453   2.589   2.262   0.769
 2557W        W 3454   0.083   7.937   2.788
 2558W        W 3455   1.427   7.550   7.745
 2559W        W 3456   7.312   3.500   2.806
 2560W        W 3457   2.446   2.640   0.448
 2561W        W 3458   2.270   7.639   3.887
 2562W        W 3459   0.281   1.747   3.311
 2563W        W 3460   5.383   6.156   3.094
 2564W        W 3461   3.305   6.341   6.872
 2565W        W 3462   5.276   7.496   3.361
 2566W        W 3463   3.836   4.279   7.706
 2567W        W 3464   6.428   5.386   6.414
 2568W        W 3465   4.001   7.482   5.566
 2569W        W 3466   1.161   0.759   2.502
 2570W        W 3467   4.167   6.508   5.791
 2571W        W 3468   2.758   4.150   3.712
 2572W        W 3469   0.785   0.665   6.697
 2573W        W 3470   1.960   1.695   1.705
 2574W        W 3471   3.669   1.598   1.698
 2575W        W 3472   6.566   6.957   1.403
 2576W        W 3473   5.279   4.300   5.811
 2577W        W 3474   2.570   5.866   3.061
 2578W        W 3475   3.566   6.301   0.415
 2579W        W 3476   5.530   4.333   4.443
 2580W        W 3477   1.692   2.810   0.502
 2581W        W 3478   5.311   5.943   1.339
 2582W        W 3479   4.580   5.062   2.598
 2583W        W 3480   2.388   1.718   5.486
 2584W        W 3481   4.038   4.363   2.595
 2585W        W 3482   1.036   2.117   4.309
 2586W        W 3483   1.007   4.147   7.490
 2587W        W 3484   2.507   5.349   1.600
 2588W        W 3485   5.623   3.214   3.584
 2589W        W 3486   4.043   7.312   6.964
 2590W        W 3487   4.386   1.266   6.179
 2591W        W 3488   6.120   0.530   5.931
 2592W        W 3489   2.690   0.122   7.272
 2593W        W 3490   7.751   4.845   6.838
 2594W        W 3491   0.706   3.205   5.310
 2595W        W 3492   3.636   5.054   7.798
 2596W        W 3493   2.323   3.788   5.739
 2597W        W 3494   3.314   3.757   3.485
 2598W        W 3495   3.992   2.676   3.703
 2599W        W 3496   7.847   6.382   4.938
 2600W        W 3497   6.192   1.503   5.375
 2601W        W 3498   7.272   5.695   3.401
 2602W        W 3499   1.524   2.580   4.421
 2603W        W 3500   6.971   1.765   6.738
 2604W        W 3501   5.407   0.866   7.115
 2605W        W 3502   7.586   2.940   2.819
 2606W        W 3503   2.941   3.943   5.629
 2607W        W 3504   6.937   2.368   2.131
 2608W        W 3505   2.582   6.225   0.985
 2609W        W 3506   5.544   1.766   3.837
 2610W        W 3507   6.619   1.096   7.711
 2611W        W 3508   2.931   3.060   2.293
 2612W        W 3509   1.123   7.188   4.267
 2613W        W 3510   2.894   2.756   0.642
 2614W        W 3511   4.837   1.539   3.198
 2615W        W 3512   4.966   7.599   3.900
 2616W        W 3513   2.811   7.005   5.059
 2617W        W 3514   0.876   7.198   7.053
 2618W        W 3515   5.157   6.276   1.024
 2619W        W 3516   6.893   5.071   5.193
 2620W        W 3517   5.243   7.000   3.580
 2621W        W 3518   7.417   4.170   5.291
 2622W        W 3519   3.974   5.042   3.227
 2623W        W 3520   6.913   4.042   7.070
 2624W        W 3521   7.155   6.183   7.506
 2625W        W 3522   7.773   5.127   4.943
 2626W        W 3523   6.335   5.809   0.360
 2627W        W 3524   4.672   6.359   0.959
 2628W        W 3525   4.944   0.346   4.545
 2629W        W 3526   7.732   1.634   1.085
 2630W        W 3527   1.000   5.871   6.157
 2631W        W 3528   3.535   5.832   7.183
 2632W        W 3529   6.059   7.050   0.013
 2633W        W 3530   2.436   1.738   1.533
 2634W        W 3531   3.260   4.584   3.289
 2635W        W 3532   4.436   4.952   4.700
 2636W        W 3533   5.545   2.630   5.819
 2637W        W 3534   1.404   2.020   2.185
 2638W        W 3535   5.132   2.349   6.064
 2639W        W 3536   2.704   7.130   1.074
 2640W        W 3537   0.081   4.084   7.220
 2641W        W 3538   2.168   1.323   7.575
 2642W        W 3539   1.284   0.581   5.247
 2643W        W 3540   3.938   2.545   4.599
 2644W        W 3541   1.451   5.430   3.326
 2645W        W 3542   6.564   4.721   1.683
 2646W        W 3543   3.305   6.248   3.908
 2647W        W 3544   5.047   1.882   4.796
 2648W        W 3545   2.539   1.081   3.998
 2649W        W 3546   2.725   4.810   0.696
 2650W        W 3547   7.445   5.691   7.374
 2651W        W 3548   1.779   5.837   7.500
 2652W        W 3549   5.602   1.385   0.253
 2653W        W 3550   5.429   3.434   7.437
 2654W        W 3551   4.773   4.473   2.067
 2655W        W 3552   6.054   0.955   2.444
 2656W        W 3553   0.097   5.353   7.504
 2657W        W 3554   6.928   6.967   5.344
 2658W        W 3555   1.612   1.833   0.224
 2659W        W 3556   3.662   7.024   7.143
 2660W        W 3557   7.754   2.915   4.730
 2661W        W 3558   1.968   1.488   6.143
 2662W        W 3559   3.397   2.205   7.298
 2663W        W 3560   2.638   5.580   2.656
 2664W        W 3561   6.586   7.082   1.879
 2665W        W 3562   3.136   6.729   2.686
 2666W        W 3563   1.020   6.960   7.857
 2667W        W 3564   0.843   4.232   3.082
 2668W        W 3565   0.961   3.154   7.178
 2669W        W 3566   6.508   3.033   1.689
 2670W        W 3567   5.181   0.446   6.438
 2671W        W 3568   3.099   7.176   5.902
 2672W        W 3569   5.938   5.882   3.728
 2673W        W 3570   3.253   7.249   7.232
 2674W        W 3571   3.636   7.107   4.286
 2675W        W 3572   2.627   2.178   0.225
 2676W        W 3573   1.843   3.847   5.953
 2677W        W 3574   1.382   2.455   5.771
 2678W        W 3575   5.668   0.645   2.311
 2679W        W 3576   7.350   7.728   2.054
 2680W        W 3577   1.239   2.793   6.385
 2681W        W 3578   4.636   2.873   3.803
 2682W        W 3579   6.603   2.841   0.006
 2683W        W 3580   0.430   5.011   7.394
 2684W        W 3581   0.116   2.283   0.522
 2685W        W 3582   0.863   5.963   2.829
 2686W        W 3583   7.716   4.485   2.925
 2687W        W 3584   3.848   3.998   2.857
 2688W        W 3585   3.340   2.351   1.299
 2689W        W 3586   6.099   2.473   1.796
 2690W        W 3587   7.255   5.264   7.623
 2691W        W 3588   5.504   6.736   7.705
 2692W        W 3589   5.202   0.037   2.373
 2693W        W 3590   7.401   2.665   2.003
 2694W        W 3591   4.008   3.318   0.342
 2695W        W 3592   0.901   0.212   2.792
 2696W        W 3593   0.499   4.755   1.322
 2697W        W 3594   5.062   5.024   3.872
 2698W        W 3595   0.352   3.961   6.317
 2699W        W 3596   4.134   6.265   2.040
 2700W        W 3597   4.965   1.280   1.954
 2701W        W 3598   3.070   7.349   3.021
 2702W        W 3599   5.671   5.060   2.273
 2703W        W 3600   4.417   5.805   3.064
 2704W        W 3601   0.969   1.205   2.800
 2705W        W 3602   4.385   6.437   5.180
 2706W        W 3603   7.356   5.329   4.073
 2707W        W 3604   4.171   6.358   1.576
 2708W        W 3605   5.206   5.593   5.697
 2709W        W 3606   0.825   0.879   2.137
 2710W        W 3607   3.461   1.513   3.831
 2711W        W 3608   7.386   1.230   2.345
 2712W        W 3609   4.391   5.286   2.990
 2713W        W 3610   0.189   2.819   5.303
 2714W        W 3611   2.350   6.068   4.704
 2715W        W 3612   4.935   0.979   7.392
 2716W        W 3613   1.055   2.595   4.830
 2717W        W 3614   1.461   1.022   3.999
 2718W        W 3615   5.537   3.055   4.506
 2719W        W 3616   3.793   7.193   5.104
 2720W        W 3617   2.762   6.512   1.723
 2721W        W 3618   1.038   2.119   2.606
 2722W        W 3619   4.810   3.757   3.169
 2723W        W 3620   1.083   5.656   5.157
 2724W        W 3621   2.196   0.491   2.292
 2725W        W 3622   3.878   4.063   2.239
 2726W        W 3623   4.292   3.186   5.500
 2727W        W 3624   6.480   6.745   3.036
 2728W        W 3625   6.777   7.642   3.739
 2729W        W 3626   0.762   6.766   6.653
 2730W        W 3627   7.490   3.208   7.014
 2731W        W 3628   5.611   6.297   3.644
 2732W        W 3629   1.337   5.535   6.050
 2733W        W 3630   4.681   5.141   7.481
 2734W        W 3631   6.710   6.103   0.598
 2735W        W 3632   4.766   5.849   5.820
 2736W        W 3633   1.903   0.933   3.265
 2737W        W 3634   6.676   2.153   7.067
 2738W        W 3635   0.618   7.271   2.359
 2739W        W 3636   6.139   4.093   3.673
 2740W        W 3637   5.077   6.977   7.837
 2741W        W 3638   0.097   1.645   2.686
 2742W        W 3639   1.755   2.388   2.059
 2743W        W 3640   7.627   5.361   6.743
 2744W        W 3641   6.924   3.067   7.126
 2745W        W 3642   7.252   4.129   4.787
 2746W        W 3643   6.126   7.167   3.521
 2747W        W 3644   1.579   4.825   6.908
 2748W        W 3645   0.923   3.950   6.474
 2749W        W 3646   6.915   2.815   1.792
 2750W        W 3647   2.529   0.223   1.072
 2751W        W 3648   1.892   1.084   4.711
 2752W        W 3649   4.226   4.744   6.801
 2753W        W 3650   6.264   4.465   6.034
 2754W        W 3651   1.471   7.468   0.395
 2755W        W 3652   5.913   3.291   4.130
 2756W        W 3653   0.900   0.799   4.854
 2757W        W 3654   4.417   7.592   1.710
 2758W        W 3655   3.628   7.147   7.756
 2759W        W 3656   0.275   5.333   4.146
 2760W        W 3657   1.994   4.544   1.703
 2761W        W 3658   2.027   1.735   7.303
 2762W        W 3659   6.999   5.985   7.067
 2763W        W 3660   1.845   6.662   7.885
 2764W        W 3661   6.505   4.558   6.465
 2765W        W 3662   1.938   6.318   0.345
 2766W        W 3663   3.143   5.886   6.904
 2767W        W 3664   3.971   3.809   6.387
 2768W        W 3665   6.866   6.457   0.176
 2769W        W 3666   5.227   6.506   2.741
 2770W        W 3667   7.761   5.808   5.718
 2771W        W 3668   2.470   7.346   3.011
 2772W        W 3669   2.774   0.661   1.141
 2773W        W 3670   1.544   1.318   6.401
 2774W        W 3671   4.647   1.710   2.690
 2775W        W 3672   1.334   1.755   3.481
 2776W        W 3673   6.828   7.374   1.374
 2777W        W 3674   7.032   0.145   7.198
 2778W        W 3675   5.015   4.413   1.647
 2779W        W 3676   2.377   7.658   3.376
 2780W        W 3677   4.227   7.814   2.319
 2781W        W 3678   3.500   6.059   0.857
 2782W        W 3679   0.531   2.883   2.695
 2783W        W 3680   2.778   1.518   2.149
 2784W        W 3681   3.114   0.284   1.877
 2785W        W 3682   3.112   5.929   0.543
 2786W        W 3683   3.198   1.667   5.606
 2787W        W 3684   1.257   7.387   3.048
 2788W        W 3685   4.750   6.637   7.774
 2789W        W 3686   0.682   6.778   0.893
 2790W        W 3687   0.761   6.207   5.806
 2791W        W 3688   3.093   5.717   6.377
 2792W        W 3689   2.812   0.644   6.459
 2793W        W 3690   3.022   2.365   1.678
 2794W        W 3691   7.427   2.251   1.110
 2795W        W 3692   4.780   2.316   4.770
 2796W        W 3693   3.384   0.432   5.697
 2797W        W 3694   0.300   2.243   2.072
 2798W        W 3695   7.054   2.484   6.316
 2799W        W 3696   5.241   7.376   6.419
 2800W        W 3697   7.014   4.872   5.627
 2801W        W 3698   5.210   6.529   3.447
 2802W        W 3699   2.503   3.328   4.440
 2803W        W 3700   5.496   6.863   5.721
 2804W        W 3701   1.265   6.610   6.551
 2805W        W 3702   2.670   1.308   1.681
 2806W        W 3703   2.553   2.281   1.779
 2807W        W 3704   7.995   4.407   0.012
 2808W        W 3705   1.432   6.112   2.098
 2809W        W 3706   4.557   6.856   5.957
 2810W        W 3707   7.828   4.101   1.053
 2811W        W 3708   5.467   4.236   1.979
 2812W        W 3709   3.857   5.043   7.024
 2813W        W 3710   2.349   3.674   6.796
 2814W        W 3711   7.588   6.424   3.991
 2815W        W 3712   1.563   2.120   1.699
 2816W        W 3713   3.829   3.872   5.880
 2817W        W 3714   3.929   1.036   1.031
 2818W        W 3715   0.733   4.972   4.744
 2819W        W 3716   6.109   1.360   2.777
 2820W        W 3717   5.725   5.373   5.069
 2821W        W 3718   4.303   6.481   6.838
 2822W        W 3719   4.388   3.358   3.107
 2823W        W 3720   2.069   5.553   3.951
 2824W        W 3721   1.171   3.364   5.533
 2825W        W 3722   7.431   1.347   7.389
 2826W        W 3723   2.386   1.780   2.018
 2827W        W 3724   3.438   0.478   6.425
 2828W        W 3725   2.782   3.308   4.014
 2829W        W 3726   3.462   4.041   7.919
 2830W        W 3727   5.130   1.191   1.112
 2831W        W 3728   5.211   7.900   6.282
 2832W        W 3729   2.451   1.045   0.253
 2833W        W 3730   5.116   0.269   2.912
 2834W        W 3731   0.544   5.485   5.421
 2835W        W 3732   4.003   5.369   0.467
 2836W        W 3733   4.037   6.694   4.344
 2837W        W 3734   3.452   6.677   6.000
 2838W        W 3735   5.389   0.482   1.891
 2839W        W 3736   5.394   3.290   6.177
 2840W        W 3737   7.941   6.055   5.316
 2841W        W 3738   2.360   6.946   4.741
 2842W        W 3739   5.332   0.055   0.376
 2843W        W 3740   7.689   6.814   0.833
 2844W        W 3741   6.705   0.463   6.850
 2845W        W 3742   7.997   0.619   5.394
 2846W        W 3743   0.723   0.353   7.704
 2847W        W 3744   2.138   5.733   4.407
 2848W        W 3745   6.503   0.341   6.225
 2849W        W 3746   5.022   0.460   7.970
 2850W        W 3747   4.594   5.518   1.316
 2851W        W 3748   3.846   3.499   2.137
 2852W        W 3749   3.785   3.769   4.648
 2853W        W 3750   5.190   1.025   7.842
 2854W        W 3751   1.686   3.701   0.635
 2855W        W 3752   5.453   2.644   4.223
 2856W        W 3753   3.707   1.731   7.446
 2857W        W 3754   4.641   0.832   4.653
 2858W        W 3755   5.799   1.516   6.729
 2859W        W 3756   1.796   7.496   0.951
 2860W        W 3757   7.297   4.839   4.492
 2861W        W 3758   5.885   2.144   1.156
 2862W        W 3759   7.584   6.276   1.574
 2863W        W 3760   2.254   3.860   6.311
 2864W        W 3761   1.839   6.214   2.803
 2865W        W 3762   4.016   6.331   0.237
 2866W        W 3763   5.477   1.529   4.653
 2867W        W 3764   4.801   5.121   1.656
 2868W        W 3765   3.910   0.086   4.446
 2869W        W 3766   6.373   4.905   7.174
 2870W        W 3767   1.493   0.848   2.986
 2871W        W 3768   2.774   5.314   6.002
 2872W        W 3769   0.761   0.940   5.366
 2873W        W 3770   0.982   3.436   3.674
 2874W        W 3771   3.916   3.835   3.337
 2875W        W 3772   7.473   1.552   3.920
 2876W        W 3773   6.432   6.538   1.062
 2877W        W 3774   0.220   1.001   5.359
 2878W        W 3775   0.941   3.356   0.176
 2879W        W 3776   2.667   6.644   2.569
 2880W        W 3777   4.850   1.182   3.539
 2881W        W 3778   0.250   1.530   1.152
 2882W        W 3779   1.844   4.701   2.684
 2883W        W 3780   4.635   5.937   0.069
 2884W        W 3781   4.674   3.536   2.702
 2885W        W 3782   0.630   6.261   1.041
 2886W        W 3783   5.158   3.024   3.637
 2887W        W 3784   7.152   6.783   3.943
 2888W        W 3785   3.817   5.864   3.572
 2889W        W 3786   2.049   2.758   4.720
 2890W        W 3787   2.636   7.239   3.517
 2891W        W 3788   5.943   0.509   3.955
 2892W        W 3789   0.722   6.187   4.321
 2893W        W 3790   7.444   6.524   6.521
 2894W        W 3791   2.067   6.578   5.473
 2895W        W 3792   7.135   2.193   3.270
 2896W        W 3793   2.512   7.486   5.134
 2897W        W 3794   0.387   2.810   1.919
 2898W        W 3795   7.310   4.114   7.364
 2899W        W 3796   5.206   1.422   7.569
 2900W        W 3797   6.324   0.187   4.276
 2901W        W 3798   1.866   7.262   3.833
 2902W        W 3799   4.173   2.329   6.114
 2903W        W 3800   6.491   6.887   2.316
 2904W        W 3801   7.849   5.118   0.833
 2905W        W 3802   4.318   3.264   4.015
 2906W        W 3803   6.852   3.196   4.480
 2907W        W 3804   6.506   5.397   6.891
 2908W        W 3805   7.929   3.969   3.127
 2909W        W 3806   6.516   0.948   7.197
 2910W        W 3807   3.821   6.636   1.848
 2911W        W 3808   7.194   2.185   2.763
 2912W        W 3809   2.995   7.608   3.578
 2913W        W 3810   0.609   2.654   3.781
 2914W        W 3811   5.449   3.143   4.019
 2915W        W 3812   3.265   4.502   4.341
 2916W        W 3813   5.207   5.080   7.280
 2917W        W 3814   5.853   0.378   1.704
 2918W        W 3815   2.337   2.456   4.426
 2919W        W 3816   4.266   5.567   3.487
 2920W        W 3817   7.176   4.189   5.776
 2921W        W 3818   2.282   7.631   6.474
 2922W        W 3819   6.912   6.537   1.504
 2923W        W 3820   3.824   4.257   4.527
 2924W        W 3821   4.083   6.909   0.739
 2925W        W 3822   6.551   6.337   3.385
 2926W        W 3823   4.449   3.025   0.132
 2927W        W 3824   2.389   6.198   5.755
 2928W        W 3825   7.035   2.623   3.040
 2929W        W 3826   7.060   0.992   6.108
 2930W        W 3827   2.876   2.267   4.482
 2931W        W 3828   7.997   7.211   6.058
 2932W        W 3829   4.297   1.238   7.592
 2933W        W 3830   5.536   1.543   0.854
 2934W        W 3831   0.216   2.031   1.173
 2935W        W 3832   1.534   6.012   6.275
 2936W        W 3833   0.617   3.578   1.046
 2937W        W 3834   7.672   3.288   5.198
 2938W        W 3835   3.922   3.847   5.160
 2939W        W 3836   6.164   0.806   7.529
 2940W        W 3837   6.859   6.702   3.503
 2941W        W 3838   4.176   1.545   6.597
 2942W        W 3839   3.814   1.110   4.758
 2943W        W 3840   7.371   1.735   2.626
 2944W        W 3841   7.463   6.667   4.408
 2945W        W 3842   2.099   4.948   1.359
 2946W        W 3843   5.512   3.226   5.652
 2947W        W 3844   4.035   6.915   6.663
 2948W        W 3845   0.837   1.481   6.899
 2949W        W 3846   4.079   2.097   6.622
 2950W        W 3847   3.885   4.587   3.527
 2951W        W 3848   1.239   6.828   0.948
 2952W        W 3849   5.523   0.151   3.237
 2953W        W 3850   3.007   3.151   4.463
 2954W        W 3851   2.301   0.606   3.159
 2955W        W 3852   2.064   7.514   6.003
 2956W        W 3853   6.560   1.717   6.454
 2957W        W 3854   5.200   2.707   0.208
 2958W        W 3855   0.317   2.426   7.364
 2959W        W 3856   0.113   2.912   1.570
 2960W        W 3857   6.683   3.322   2.064
 2961W        W 3858   4.895   6.566   0.445
 2962W        W 3859   4.180   1.537   4.027
 2963W        W 3860   0.468   0.338   3.131
 2964W        W 3861   1.134   0.975   3.303
 2965W        W 3862   2.335   1.946   4.406
 2966W        W 3863   3.106   0.945   3.996
 2967W        W 3864   6.253   7.750   4.413
 2968W        W 3865   6.458   6.458   7.333
 2969W        W 3866   5.521   0.287   5.946
 2970W        W 3867   1.186   5.948   7.210
 2971W        W 3868   4.648   5.509   2.021
 2972W        W 3869   3.393   6.711   5.111
 2973W        W 3870   1.514   2.009   6.748
 2974W        W 3871   5.649   6.180   1.642
 2975W        W 3872   5.439   6.812   5.209
 2976W        W 3873   0.477   4.680   7.818
 2977W        W 3874   0.556   5.789   2.392
 2978W        W 3875   6.272   7.621   7.019
 2979W        W 3876   4.463   2.393   4.383
 2980W        W 3877   2.908   0.750   2.849
 2981W        W 3878   6.942   4.132   2.518
 2982W        W 3879   6.941   1.260   5.189
 2983W        W 3880   6.306   3.879   4.150
 2984W        W 3881   5.298   5.955   6.066
 2985W        W 3882   1.740   0.626   7.870
 2986W        W 3883   6.875   7.217   4.084
 2987W        W 3884   2.720   4.298   5.305
 2988W        W 3885   3.233   1.042   4.825
 2989W        W 3886   0.961   5.005   7.124
 2990W        W 3887   7.381   6.703   1.307
 2991W        W 3888   7.875   5.553   3.502
 2992W        W 3889   7.847   5.814   1.770
 2993W        W 3890   4.836   0.853   6.407
 2994W        W 3891   1.339   0.179   6.485
 2995W        W 3892   7.211   5.433   1.623
 2996W        W 3893   3.147   5.745   5.887
 2997W        W 3894   3.966   4.713   7.561
 2998W        W 3895   3.231   0.502   3.725
 2999W        W 3896   3.846   1.435   2.737
 3000W        W 3897   5.974   6.562   0.828
 3001W        W 3898   1.681   2.878   2.678
 3002W        W 3899   3.556   5.427   6.785
 3003W        W 3900   3.629   0.469   7.455
 3004W        W 3901   1.492   4.113   0.441
 3005W        W 3902   5.346   3.719   1.866
 3006W        W 3903   6.950   4.984   4.108
 3007W        W 3904   7.187   1.433   0.056
 3008W        W 3905   2.957   1.383   7.034
 3009W        W 3906   0.735   3.389   2.605
 3010W        W 3907   7.471   6.588   2.948
 3011W        W 3908   6.740   5.774   6.680
 3012W        W 3909   1.848   4.244   7.305
 3013W        W 3910   7.347   5.199   5.365
 3014W        W 3911   6.027   5.222   5.402
 3015W        W 3912   0.103   1.926   5.540
 3016W        W 3913   3.458   1.292   6.421
 3017W        W 3914   4.924   7.144   5.798
 3018W        W 3915   1.753   3.227   0.841
 3019W        W 3916   0.011   0.347   6.489
 3020W        W 3917   4.403   5.594   6.848
 3021W        W 3918   0.038   1.318   7.673
 3022W        W 3919   1.552   3.619   4.057
 3023W        W 3920   3.051   6.778   6.892
 3024W        W 3921   1.999   6.453   4.619
 3025W        W 3922   4.345   6.035   1.101
 3026W        W 3923   5.342   1.582   2.248
 3027W        W 3924   1.700   0.416   3.184
 3028W        W 3925   6.255   0.468   0.821
 3029W        W 3926   3.708   5.585   0.030
 3030W        W 3927   5.793   5.722   6.116
 3031W        W 3928   7.382   5.652   7.936
 3032W        W 3929   4.357   3.115   6.390
 3033W        W 3930   1.294   7.133   2.618
 3034W        W 3931   7.555   5.064   6.251
 3035W        W 3932   5.662   0.735   5.122
 3036W        W 3933   6.843   6.020   6.234
 3037W        W 3934   6.690   1.098   1.598
 3038W        W 3935   0.854   0.066   3.326
 3039W        W 3936   0.322   1.238   0.690
 3040W        W 3937   0.511   5.687   3.208
 3041W        W 3938   7.196   4.701   4.959
 3042W        W 3939   4.532   1.628   5.858
 3043W        W 3940   7.669   7.724   6.275
 3044W        W 3941   6.560   6.379   6.363
 3045W        W 3942   3.797   1.379   0.326
 3046W        W 3943   6.456   0.607   3.388
 3047W        W 3944   3.737   2.173   6.263
 3048W        W 3945   7.161   5.829   5.822
 3049W        W 3946   3.023   0.525   4.222
 3050W        W 3947   0.586   1.288   5.096
 3051W        W 3948   7.395   2.613   2.506
 3052W        W 3949   3.339   1.113   0.121
 3053W        W 3950   3.610   6.196   1.519
 3054W        W 3951   1.576   7.372   4.357
 3055W        W 3952   0.269   3.535   4.534
 3056W        W 3953   4.395   6.037   6.675
 3057W        W 3954   7.734   4.078   4.226
 3058W        W 3955   2.917   0.717   1.827
 3059W        W 3956   7.936   0.045   3.374
 3060W        W 3957   1.687   7.264   1.384
 3061W        W 3958   6.117   7.001   4.924
 3062W        W 3959   4.820   1.380   1.488
 3063W        W 3960   5.654   5.918   6.928
 3064W        W 3961   3.329   4.732   1.585
 3065W        W 3962   5.061   1.881   6.200
 3066W        W 3963   5.218   7.600   6.861
 3067W        W 3964   6.414   6.968   6.282
 3068W        W 3965   6.056   3.713   0.443
 3069W        W 3966   2.456   2.126   3.058
 3070W        W 3967   4.299   4.938   0.303
 3071W        W 3968   4.535   3.129   1.100
 3072W        W 3969   6.696   7.099   4.926
 3073W        W 3970   4.623   3.627   1.139
 3074W        W 3971   4.431   3.785   3.552
 3075W        W 3972   5.945   4.666   5.380
 3076W        W 3973   3.115   7.387   7.729
 3077W        W 3974   1.918   2.978   6.992
 3078W        W 3975   5.071   7.037   0.369
 3079W        W 3976   1.485   7.108   5.036
 3080W        W 3977   7.614   2.536   4.288
 3081W        W 3978   2.879   2.641   1.273
 3082W        W 3979   5.584   6.238   2.162
 3083W        W 3980   5.474   0.937   0.396
 3084W        W 3981   4.135   7.007   5.707
 3085W        W 3982   2.626   5.089   2.396
 3086W        W 3983   5.991   7.197   0.743
 3087W        W 3984   2.566   3.027   0.228
 3088W        W 3985   1.639   2.667   7.350
 3089W        W 3986   6.757   7.780   4.432
 3090W        W 3987   7.366   2.889   4.010
 3091W        W 3988   0.833   4.579   5.175
 3092W        W 3989   0.157   5.371   4.594
 3093W        W 3990   0.620   4.815   3.816
 3094W        W 3991   5.314   5.322   3.530
 3095W        W 3992   3.620   1.601   1.189
 3096W        W 3993   3.005   1.747   0.189
 3097W        W 3994   6.544   4.202   4.525
 3098W        W 3995   4.818   4.703   6.672
 3099W        W 3996   6.049   3.731   6.692
 3100W        W 3997   7.040   2.248   7.471
 3101W        W 3998   2.837   2.853   1.729
 3102W        W 3999   6.252   2.164   6.140
 3103W        W 4000   5.157   2.816   2.233
 3104W        W 4001   1.168   2.728   7.465
 3105W        W 4002   2.291   0.105   0.592
 3106W        W 4003   5.155   7.009   2.498
 3107W        W 4004   5.591   5.385   7.412
 3108W        W 4005   0.816   2.248   7.328
 3109W        W 4006   5.689   2.749   3.395
 3110W        W 4007   0.989   7.181   5.893
 3111W        W 4008   6.030   7.377   6.199
 3112W        W 4009   4.826   7.426   5.397
 3113W        W 4010   3.940   7.340   2.486
 3114W        W 4011   1.952   6.073   6.014
 3115W        W 4012   4.662   3.089   7.772
 3116W        W 4013   6.305   3.372   2.875
 3117W        W 4014   4.055   2.844   4.184
 3118W        W 4015   3.670   7.549   7.346
 3119W        W 4016   3.107   4.155   6.390
 3120W        W 4017   7.077   2.092   3.833
 3121W        W 4018   4.392   3.644   4.943
 3122W        W 4019   7.484   5.038   0.358
 3123W        W 4020   2.018   1.156   6.546
 3124W        W 4021   0.141   1.204   3.687
 3125W        W 4022   2.468   4.585   7.133
 3126W        W 4023   6.267   2.332   7.882
 3127W        W 4024   1.967   3.374   7.300
 3128W        W 4025   2.384   6.654   7.205
 3129W        W 4026   4.917   6.443   7.328
 3130W        W 4027   0.673   7.302   0.692
 3131W        W 4028   2.490   3.171   5.611
 3132W        W 4029   6.546   1.892   0.675
 3133W        W 4030   2.814   5.380   0.765
 3134W        W 4031   3.941   3.366   5.051
 3135W        W 4032   6.840   0.130   1.750
 3136W        W 4033   7.356   0.399   6.885
 3137W        W 4034   3.847   1.849   3.887
 3138W        W 4035   1.709   4.198   2.667
 3139W        W 4036   7.965   4.383   6.936
 3140W        W 4037   5.238   3.845   6.036
 3141W        W 4038   6.237   5.294   4.611
 3142W        W 4039   6.464   1.507   1.426
 3143W        W 4040   0.529   2.351   0.221
 3144W        W 4041   1.865   7.054   5.545
 3145W        W 4042   1.870   4.466   4.112
 3146W        W 4043   2.052   2.898   0.179
 3147W        W 4044   4.787   4.708   5.009
 3148W        W 4045   0.199   2.664   2.385
 3149W        W 4046   4.762   3.283   6.702
 3150W        W 4047   0.011   6.640   2.133
 3151W        W 4048   0.424   4.086   2.870
 3152W        W 4049   7.746   4.835   3.349
 3153W        W 4050   2.374   0.800   3.608
 3154W        W 4051   0.866   5.105   7.626
 3155W        W 4052   7.648   3.556   7.534
 3156W        W 4053   4.329   6.924   2.543
 3157W        W 4054   6.581   2.494   1.553
 3158W        W 4055   4.731   5.343   5.846
 3159W        W 4056   0.201   6.891   4.609
 3160W        W 4057   7.823   6.377   6.175
 3161W        W 4058   7.460   3.734   4.470
 3162W        W 4059   2.260   6.919   2.093
 3163W        W 4060   1.655   6.398   5.748
 3164W        W 4061   4.495   2.886   6.830
 3165W        W 4062   7.342   1.875   1.439
 3166W        W 4063   6.106   5.019   0.801
 3167W        W 4064   5.124   1.674   4.270
 3168W        W 4065   2.340   2.748   1.443
 3169W        W 4066   4.225   0.833   5.986
 3170W        W 4067   0.754   7.033   5.499
 3171W        W 4068   7.116   3.414   2.333
 3172W        W 4069   1.705   6.551   6.245
 3173W        W 4070   4.222   5.349   7.994
 3174W        W 4071   3.798   1.987   2.012
 3175W        W 4072   2.493   0.891   5.441
 3176W        W 4073   1.903   4.814   6.494
 3177W        W 4074   1.995   1.598   5.111
 3178W        W 4075   5.116   1.352   2.599
 3179W        W 4076   7.211   6.690   6.082
 3180W        W 4077   7.024   6.258   6.679
 3181W        W 4078   5.457   1.338   7.069
 3182W        W 4079   6.236   3.846   4.679
 3183W        W 4080   4.997   7.370   2.187
 3184W        W 4081   3.320   5.956   4.833
 3185W        W 4082   5.305   1.714   6.755
 3186W        W 4083   5.463   5.398   0.493
 3187W        W 4084   6.219   6.928   7.135
 3188W        W 4085   6.839   7.016   2.689
 3189W        W 4086   0.391   1.970   7.560
 3190W        W 4087   0.704   3.334   5.832
 3191W        W 4088   0.265   3.825   1.387
 3192W        W 4089   7.118   1.325   4.286
 3193W        W 4090   6.967   3.881   2.949
 3194W        W 4091   7.328   3.863   2.312
 3195W        W 4092   3.482   7.576   5.630
 3196W        W 4093   4.550   0.363   7.039
 3197W        W 4094   0.932   1.406   5.423
 3198W        W 4095   2.476   6.900   6.206
 3199W        W 4096   6.257   4.506   7.463
 3200W        W 4097   3.410   7.503   3.382
 3201W        W 4098   2.245   3.002   6.036
 3202W        W 4099   1.736   3.761   4.586
 3203W        W 4100   1.303   6.840   4.637
 3204W        W 4101   7.561   1.375   5.985
 3205W        W 4102   5.838   1.012   6.843
 3206W        W 4103   4.542   6.351   3.727
 3207W        W 4104   0.253   3.344   5.539
 3208W        W 4105   5.395   5.350   4.708
 3209W        W 4106   1.146   1.681   6.469
 3210W        W 4107   1.109   6.546   2.791
 3211W        W 4108   2.838   6.456   7.571
 3212W        W 4109   7.641   0.391   2.676
 3213W        W 4110   0.761   4.388   6.603
 3214W        W 4111   2.240   0.195   2.898
 3215W        W 4112   6.921   1.503   6.044
 3216W        W 4113   2.090   6.952   1.632
 3217W        W 4114   0.868   6.791   2.487
 3218W        W 4115   6.345   4.669   4.617
 3219W        W 4116   3.035   5.330   1.266
 3220W        W 4117   5.119   0.728   4.881
 3221W        W 4118   3.309   3.119   2.635
 3222W        W 4119   2.782   0.521   3.309
 3223W        W 4120   7.962   3.768   6.359
 3224W        W 4121   0.510   7.646   1.389
 3225W        W 4122   1.843   4.437   7.851
 3226W        W 4123   0.082   3.144   2.636
 3227W        W 4124   6.792   4.912   4.668
 3228W        W 4125   6.795   1.871   3.414
 3229W        W 4126   2.142   2.488   6.770
 3230W        W 4127   7.326   6.667   3.432
 3231W        W 4128   7.477   0.812   1.332
 3232W        W 4129   1.671   5.985   4.610
 3233W        W 4130   3.612   2.999   2.269
 3234W        W 4131   1.716   3.265   0.226
 3235W        W 4132   6.862   1.258   6.570
 3236W        W 4133   1.807   0.803   4.299
 3237W        W 4134   5.569   3.620   3.944
 3238W        W 4135   7.057   2.002   0.095
 3239W        W 4136   4.712   3.321   3.477
 3240W        W 4137   3.079   5.876   1.077
 3241W        W 4138   6.481   4.268   0.208
 3242W        W 4139   6.110   6.320   6.552
 3243W        W 4140   1.253   6.368   6.075
 3244W        W 4141   4.509   2.980   2.716
 3245W        W 4142   7.290   4.529   1.008
 3246W        W 4143   0.824   3.061   4.860
 3247W        W 4144   5.076   2.845   2.800
 3248W        W 4145   2.550   3.855   5.265
 3249W        W 4146   2.838   2.910   7.734
 3250W        W 4147   5.302   4.533   3.096
 3251W        W 4148   5.460   7.517   2.475
 3252W        W 4149   5.535   5.510   2.482
 3253W        W 4150   7.332   1.354   6.404
 3254W        W 4151   5.425   1.206   4.254
 3255W        W 4152   7.820   1.633   1.681
 3256W        W 4153   3.135   4.905   0.947
 3257W        W 4154   1.015   7.828   1.460
 3258W        W 4155   1.355   5.842   7.738
 3259W        W 4156   5.179   2.493   0.708
 3260W        W 4157   4.732   0.192   6.578
 3261W        W 4158   6.118   1.947   1.675
 3262W        W 4159   5.865   0.965   1.984
   8.00000   8.00000   8.00000
