Martini system from ../2_Creating_coordinates/TYR-LYS-TYR_aa.pdb
 4256
    1TYR     BB    1   0.015   4.171   4.055
    1TYR    SC1    2   0.154   4.449   4.041
    1TYR    SC2    3   0.291   4.423   4.237
    1TYR    SC3    4   0.474   4.539   4.128
    2LYS     BB    5   0.362   4.044   4.131
    2LYS    SC1    6   0.260   3.737   4.148
    2LYS    SC2    7   0.271   3.413   4.205
    3TYR     BB    8   0.546   4.006   4.393
    3TYR    SC1    9   0.733   4.228   4.363
    3TYR    SC2   10   0.884   4.221   4.551
    3TYR    SC3   11   1.071   4.279   4.407
    1TYR     BB   12   2.592   7.306   3.152
    1TYR    SC1   13   2.376   7.482   3.012
    1TYR    SC2   14   2.495   7.513   2.805
    1TYR    SC3   15   2.287   7.497   2.680
    2LYS     BB   16   2.611   7.131   2.819
    2LYS    SC1   17   2.833   6.922   2.927
    2LYS    SC2   18   3.059   6.683   2.919
    3TYR     BB   19   2.770   7.170   2.542
    3TYR    SC1   20   2.561   7.277   2.370
    3TYR    SC2   21   2.658   7.315   2.152
    3TYR    SC3   22   2.456   7.233   2.045
    1TYR     BB   23   5.539   3.183   4.516
    1TYR    SC1   24   5.700   3.286   4.762
    1TYR    SC2   25   5.590   3.150   4.927
    1TYR    SC3   26   5.800   3.117   5.045
    2LYS     BB   27   5.594   2.843   4.671
    2LYS    SC1   28   5.439   2.694   4.428
    2LYS    SC2   29   5.296   2.451   4.260
    3TYR     BB   30   5.446   2.659   4.890
    3TYR    SC1   31   5.623   2.689   5.119
    3TYR    SC2   32   5.532   2.558   5.300
    3TYR    SC3   33   5.755   2.486   5.364
    1TYR     BB   34   0.832   7.596   2.069
    1TYR    SC1   35   1.060   7.386   2.106
    1TYR    SC2   36   1.244   7.540   2.085
    1TYR    SC3   37   1.367   7.421   2.257
    2LYS     BB   38   1.040   7.806   2.304
    2LYS    SC1   39   0.823   8.047   2.299
    2LYS    SC2   40   0.694   8.344   2.355
    3TYR     BB   41   1.284   8.014   2.278
    3TYR    SC1   42   1.507   7.853   2.374
    3TYR    SC2   43   1.705   7.989   2.364
    3TYR    SC3   44   1.782   7.899   2.576
    1TYR     BB   45   0.546   6.900   4.958
    1TYR    SC1   46   0.415   7.176   5.019
    1TYR    SC2   47   0.473   7.184   5.252
    1TYR    SC3   48   0.516   7.423   5.236
    2LYS     BB   49   0.833   7.034   5.162
    2LYS    SC1   50   1.007   6.764   5.117
    2LYS    SC2   51   1.252   6.548   5.153
    3TYR     BB   52   0.914   7.044   5.474
    3TYR    SC1   53   0.859   7.323   5.538
    3TYR    SC2   54   0.913   7.356   5.770
    3TYR    SC3   55   1.010   7.573   5.721
    1TYR     BB   56   6.463   0.542   2.857
    1TYR    SC1   57   6.554   0.839   2.879
    1TYR    SC2   58   6.348   0.938   2.804
    1TYR    SC3   59   6.372   1.119   2.964
    2LYS     BB   60   6.145   0.668   3.017
    2LYS    SC1   61   6.015   0.371   3.020
    2LYS    SC2   62   5.787   0.137   3.057
    3TYR     BB   63   5.868   0.798   2.918
    3TYR    SC1   64   5.906   1.077   2.992
    3TYR    SC2   65   5.708   1.197   2.926
    3TYR    SC3   66   5.716   1.328   3.130
    1TYR     BB   67   4.733   3.023   6.033
    1TYR    SC1   68   4.641   3.319   6.047
    1TYR    SC2   69   4.820   3.398   6.188
    1TYR    SC3   70   4.829   3.607   6.063
    2LYS     BB   71   5.076   3.171   5.982
    2LYS    SC1   72   5.213   2.878   5.954
    2LYS    SC2   73   5.450   2.653   5.929
    3TYR     BB   74   5.317   3.275   6.169
    3TYR    SC1   75   5.289   3.564   6.142
    3TYR    SC2   76   5.462   3.666   6.276
    3TYR    SC3   77   5.499   3.834   6.105
    1TYR     BB   78   5.621   2.020   2.313
    1TYR    SC1   79   5.536   1.785   2.499
    1TYR    SC2   80   5.458   1.920   2.682
    1TYR    SC3   81   5.275   1.766   2.722
    2LYS     BB   82   5.294   2.173   2.420
    2LYS    SC1   83   5.341   2.434   2.233
    2LYS    SC2   84   5.289   2.732   2.106
    3TYR     BB   85   5.188   2.356   2.664
    3TYR    SC1   86   5.043   2.160   2.823
    3TYR    SC2   87   4.954   2.275   3.015
    3TYR    SC3   88   4.747   2.149   2.998
    1TYR     BB   89   1.494   2.198   4.399
    1TYR    SC1   90   1.239   2.361   4.327
    1TYR    SC2   91   1.081   2.183   4.362
    1TYR    SC3   92   0.921   2.340   4.457
    2LYS     BB   93   1.286   2.071   4.686
    2LYS    SC1   94   1.530   1.891   4.800
    2LYS    SC2   95   1.687   1.670   4.986
    3TYR     BB   96   1.075   1.832   4.736
    3TYR    SC1   97   0.823   1.978   4.738
    3TYR    SC2   98   0.647   1.818   4.774
    3TYR    SC3   99   0.532   1.973   4.921
    1TYR     BB  100   7.299   1.933   4.424
    1TYR    SC1  101   7.326   1.627   4.375
    1TYR    SC2  102   7.394   1.640   4.144
    1TYR    SC3  103   7.548   1.456   4.176
    2LYS     BB  104   7.625   1.954   4.236
    2LYS    SC1  105   7.638   2.276   4.271
    2LYS    SC2  106   7.744   2.584   4.229
    3TYR     BB  107   7.717   1.975   3.928
    3TYR    SC1  108   7.812   1.704   3.878
    3TYR    SC2  109   7.888   1.694   3.650
    3TYR    SC3  110   8.077   1.557   3.715
    1TYR     BB  111   2.711   1.068   6.467
    1TYR    SC1  112   2.926   0.946   6.657
    1TYR    SC2  113   2.907   0.719   6.580
    1TYR    SC3  114   3.147   0.689   6.602
    2LYS     BB  115   2.878   0.854   6.205
    2LYS    SC1  116   2.678   0.961   5.973
    2LYS    SC2  117   2.533   0.980   5.679
    3TYR     BB  118   2.852   0.551   6.098
    3TYR    SC1  119   3.090   0.429   6.216
    3TYR    SC2  120   3.093   0.198   6.150
    3TYR    SC3  121   3.334   0.208   6.116
    1TYR     BB  122   2.114   3.753   2.657
    1TYR    SC1  123   2.169   3.538   2.439
    1TYR    SC2  124   2.051   3.358   2.546
    1TYR    SC3  125   1.969   3.280   2.331
    2LYS     BB  126   1.764   3.615   2.652
    2LYS    SC1  127   1.663   3.828   2.875
    2LYS    SC2  128   1.463   3.971   3.093
    3TYR     BB  129   1.604   3.375   2.796
    3TYR    SC1  130   1.585   3.181   2.580
    3TYR    SC2  131   1.467   2.989   2.666
    3TYR    SC3  132   1.346   2.966   2.456
    1TYR     BB  133  -0.137   6.877   1.866
    1TYR    SC1  134  -0.209   6.761   2.146
    1TYR    SC2  135  -0.207   6.529   2.082
    1TYR    SC3  136  -0.107   6.468   2.295
    2LYS     BB  137   0.117   6.598   1.858
    2LYS    SC1  138   0.227   6.691   1.568
    2LYS    SC2  139   0.398   6.679   1.288
    3TYR     BB  140   0.122   6.288   1.771
    3TYR    SC1  141   0.122   6.156   2.031
    3TYR    SC2  142   0.126   5.919   1.992
    3TYR    SC3  143   0.281   5.887   2.176
    1TYR     BB  144   2.160   7.406   6.757
    1TYR    SC1  145   1.980   7.176   6.650
    1TYR    SC2  146   1.838   7.313   6.512
    1TYR    SC3  147   1.832   7.140   6.341
    2LYS     BB  148   2.159   7.524   6.399
    2LYS    SC1  149   2.353   7.775   6.468
    2LYS    SC2  150   2.519   8.054   6.422
    3TYR     BB  151   1.971   7.709   6.214
    3TYR    SC1  152   1.835   7.508   6.052
    3TYR    SC2  153   1.686   7.625   5.902
    3TYR    SC3  154   1.743   7.472   5.722
    1TYR     BB  155   5.243   4.695   1.055
    1TYR    SC1  156   5.429   4.935   0.988
    1TYR    SC2  157   5.549   4.828   0.808
    1TYR    SC3  158   5.553   5.037   0.683
    2LYS     BB  159   5.205   4.667   0.681
    2LYS    SC1  160   5.000   4.418   0.708
    2LYS    SC2  161   4.811   4.166   0.614
    3TYR     BB  162   5.363   4.524   0.440
    3TYR    SC1  163   5.498   4.750   0.317
    3TYR    SC2  164   5.625   4.667   0.130
    3TYR    SC3  165   5.564   4.860  -0.003
    1TYR     BB  166   6.187   7.011   7.916
    1TYR    SC1  167   6.483   7.095   7.960
    1TYR    SC2  168   6.563   7.033   7.741
    1TYR    SC3  169   6.708   7.228   7.736
    2LYS     BB  170   6.227   7.181   7.582
    2LYS    SC1  171   5.919   7.120   7.500
    2LYS    SC2  172   5.651   7.101   7.312
    3TYR     BB  173   6.331   7.099   7.288
    3TYR    SC1  174   6.591   7.229   7.282
    3TYR    SC2  175   6.691   7.182   7.068
    3TYR    SC3  176   6.777   7.408   7.054
    1TYR     BB  177   3.172   5.841   3.881
    1TYR    SC1  178   3.256   5.937   3.597
    1TYR    SC2  179   3.366   5.734   3.530
    1TYR    SC3  180   3.280   5.758   3.304
    2LYS     BB  181   3.074   5.523   3.704
    2LYS    SC1  182   2.968   5.388   3.979
    2LYS    SC2  183   2.855   5.156   4.182
    3TYR     BB  184   3.220   5.249   3.615
    3TYR    SC1  185   3.250   5.291   3.329
    3TYR    SC2  186   3.359   5.096   3.238
    3TYR    SC3  187   3.215   5.102   3.043
    1TYR     BB  188   4.991   6.750   2.330
    1TYR    SC1  189   5.044   6.446   2.289
    1TYR    SC2  190   4.821   6.387   2.220
    1TYR    SC3  191   4.910   6.229   2.058
    2LYS     BB  192   4.804   6.722   2.003
    2LYS    SC1  193   4.733   7.038   2.004
    2LYS    SC2  194   4.593   7.320   1.910
    3TYR     BB  195   4.506   6.646   1.909
    3TYR    SC1  196   4.547   6.378   1.802
    3TYR    SC2  197   4.333   6.297   1.725
    3TYR    SC3  198   4.438   6.197   1.530
    1TYR     BB  199   7.516   6.296   6.003
    1TYR    SC1  200   7.750   6.317   6.207
    1TYR    SC2  201   7.681   6.135   6.349
    1TYR    SC3  202   7.913   6.069   6.381
    2LYS     BB  203   7.583   5.925   6.023
    2LYS    SC1  204   7.351   5.859   5.806
    2LYS    SC2  205   7.145   5.680   5.624
    3TYR     BB  206   7.490   5.680   6.210
    3TYR    SC1  207   7.729   5.638   6.372
    3TYR    SC2  208   7.683   5.456   6.523
    3TYR    SC3  209   7.907   5.369   6.491
    1TYR     BB  210   3.913   6.208   0.103
    1TYR    SC1  211   3.979   6.237   0.406
    1TYR    SC2  212   3.826   6.418   0.451
    1TYR    SC3  213   3.772   6.322   0.668
    2LYS     BB  214   3.555   6.241   0.216
    2LYS    SC1  215   3.443   6.208  -0.086
    2LYS    SC2  216   3.227   6.204  -0.334
    3TYR     BB  217   3.349   6.482   0.275
    3TYR    SC1  218   3.344   6.484   0.566
    3TYR    SC2  219   3.194   6.659   0.636
    3TYR    SC3  220   3.107   6.518   0.814
    1TYR     BB  221   3.989   4.252   5.735
    1TYR    SC1  222   4.036   4.010   5.546
    1TYR    SC2  223   4.257   4.074   5.472
    1TYR    SC3  224   4.328   3.842   5.474
    2LYS     BB  225   4.343   4.187   5.845
    2LYS    SC1  226   4.333   4.429   6.062
    2LYS    SC2  227   4.441   4.644   6.285
    3TYR     BB  228   4.639   4.274   5.750
    3TYR    SC1  229   4.731   4.029   5.622
    3TYR    SC2  230   4.954   4.070   5.541
    3TYR    SC3  231   5.024   3.847   5.610
    1TYR     BB  232   1.024   6.224   3.727
    1TYR    SC1  233   1.234   6.075   3.902
    1TYR    SC2  234   1.308   5.921   3.732
    1TYR    SC3  235   1.537   5.939   3.812
    2LYS     BB  236   1.294   6.217   3.464
    2LYS    SC1  237   1.109   6.379   3.252
    2LYS    SC2  238   1.016   6.512   2.967
    3TYR     BB  239   1.393   6.013   3.235
    3TYR    SC1  240   1.636   5.906   3.355
    3TYR    SC2  241   1.730   5.748   3.200
    3TYR    SC3  242   1.954   5.827   3.250
    1TYR     BB  243   3.746   4.460   8.422
    1TYR    SC1  244   4.019   4.514   8.283
    1TYR    SC2  245   3.981   4.377   8.089
    1TYR    SC3  246   4.094   4.539   7.948
    2LYS     BB  247   3.604   4.508   8.077
    2LYS    SC1  248   3.300   4.464   8.182
    2LYS    SC2  249   2.975   4.421   8.169
    3TYR     BB  250   3.549   4.325   7.817
    3TYR    SC1  251   3.764   4.412   7.640
    3TYR    SC2  252   3.745   4.286   7.436
    3TYR    SC3  253   3.800   4.484   7.306
    1TYR     BB  254   3.345   0.952   2.748
    1TYR    SC1  255   3.245   1.206   2.598
    1TYR    SC2  256   3.346   1.367   2.745
    1TYR    SC3  257   3.399   1.510   2.556
    2LYS     BB  258   3.672   1.137   2.766
    2LYS    SC1  259   3.818   0.891   2.918
    2LYS    SC2  260   4.051   0.727   3.081
    3TYR     BB  261   3.810   1.352   2.963
    3TYR    SC1  262   3.786   1.597   2.807
    3TYR    SC2  263   3.883   1.775   2.936
    3TYR    SC3  264   3.983   1.870   2.736
    1TYR     BB  265   5.833   0.712   4.485
    1TYR    SC1  266   5.567   0.721   4.325
    1TYR    SC2  267   5.661   0.794   4.116
    1TYR    SC3  268   5.508   0.651   3.993
    2LYS     BB  269   5.970   0.548   4.175
    2LYS    SC1  270   6.264   0.512   4.309
    2LYS    SC2  271   6.584   0.443   4.330
    3TYR     BB  272   6.100   0.643   3.896
    3TYR    SC1  273   5.879   0.596   3.712
    3TYR    SC2  274   5.953   0.662   3.492
    3TYR    SC3  275   5.840   0.470   3.394
    1TYR     BB  276   0.832   1.313   3.303
    1TYR    SC1  277   0.551   1.257   3.182
    1TYR    SC2  278   0.525   1.035   3.271
    1TYR    SC3  279   0.289   1.075   3.311
    2LYS     BB  280   0.686   1.159   3.615
    2LYS    SC1  281   0.960   1.207   3.782
    2LYS    SC2  282   1.175   1.187   4.029
    3TYR     BB  283   0.653   0.863   3.737
    3TYR    SC1  284   0.369   0.814   3.692
    3TYR    SC2  285   0.319   0.594   3.776
    3TYR    SC3  286   0.108   0.673   3.866
    1TYR     BB  287   2.484   3.229   1.351
    1TYR    SC1  288   2.300   3.352   1.569
    1TYR    SC2  289   2.265   3.564   1.461
    1TYR    SC3  290   2.034   3.568   1.535
    2LYS     BB  291   2.233   3.375   1.110
    2LYS    SC1  292   2.393   3.257   0.854
    2LYS    SC2  293   2.472   3.208   0.539
    3TYR     BB  294   2.187   3.657   0.962
    3TYR    SC1  295   1.964   3.765   1.116
    3TYR    SC2  296   1.910   3.981   1.023
    3TYR    SC3  297   1.673   3.936   1.049
    1TYR     BB  298   1.746   0.757   2.202
    1TYR    SC1  299   1.501   0.915   2.093
    1TYR    SC2  300   1.607   0.998   1.893
    1TYR    SC3  301   1.401   0.968   1.768
    2LYS     BB  302   1.782   0.642   1.845
    2LYS    SC1  303   2.038   0.456   1.918
    2LYS    SC2  304   2.298   0.261   1.870
    3TYR     BB  305   1.926   0.749   1.577
    3TYR    SC1  306   1.697   0.846   1.425
    3TYR    SC2  307   1.780   0.934   1.217
    3TYR    SC3  308   1.591   0.838   1.098
    1TYR     BB  309   5.300   6.477   5.054
    1TYR    SC1  310   5.567   6.631   5.104
    1TYR    SC2  311   5.471   6.851   5.116
    1TYR    SC3  312   5.625   6.912   5.293
    2LYS     BB  313   5.165   6.702   5.325
    2LYS    SC1  314   4.872   6.563   5.310
    2LYS    SC2  315   4.552   6.516   5.369
    3TYR     BB  316   5.034   6.996   5.342
    3TYR    SC1  317   5.255   7.150   5.454
    3TYR    SC2  318   5.180   7.378   5.476
    3TYR    SC3  319   5.294   7.397   5.690
    1TYR     BB  320   6.865   3.821   4.474
    1TYR    SC1  321   7.062   3.680   4.278
    1TYR    SC2  322   6.906   3.650   4.097
    1TYR    SC3  323   7.080   3.698   3.935
    2LYS     BB  324   6.759   4.015   4.169
    2LYS    SC1  325   6.545   4.189   4.339
    2LYS    SC2  326   6.301   4.401   4.398
    3TYR     BB  327   6.549   3.976   3.927
    3TYR    SC1  328   6.727   3.906   3.708
    3TYR    SC2  329   6.590   3.871   3.512
    3TYR    SC3  330   6.755   3.983   3.373
    1TYR     BB  331   7.672   7.196   2.708
    1TYR    SC1  332   7.625   7.303   2.996
    1TYR    SC2  333   7.836   7.417   3.019
    1TYR    SC3  334   7.728   7.599   3.140
    2LYS     BB  335   7.803   7.543   2.641
    2LYS    SC1  336   7.861   7.475   2.329
    2LYS    SC2  337   7.972   7.515   2.023
    3TYR     BB  338   8.085   7.697   2.668
    3TYR    SC1  339   8.038   7.860   2.905
    3TYR    SC2  340   8.238   7.987   2.947
    3TYR    SC3  341   8.107   8.182   3.006
    1TYR     BB  342   3.328   7.506   4.301
    1TYR    SC1  343   3.408   7.259   4.129
    1TYR    SC2  344   3.634   7.240   4.210
    1TYR    SC3  345   3.618   6.997   4.206
    2LYS     BB  346   3.504   7.322   4.579
    2LYS    SC1  347   3.435   7.555   4.793
    2LYS    SC2  348   3.442   7.723   5.076
    3TYR     BB  349   3.806   7.297   4.690
    3TYR    SC1  350   3.881   7.033   4.592
    3TYR    SC2  351   4.107   6.991   4.664
    3TYR    SC3  352   4.052   6.760   4.714
    1TYR     BB  353   6.953   2.901   4.984
    1TYR    SC1  354   6.788   3.014   4.745
    1TYR    SC2  355   6.974   3.104   4.622
    1TYR    SC3  356   6.872   3.036   4.412
    2LYS     BB  357   7.187   2.779   4.715
    2LYS    SC1  358   7.384   2.640   4.932
    2LYS    SC2  359   7.649   2.487   5.051
    3TYR     BB  360   7.438   2.897   4.551
    3TYR    SC1  361   7.316   2.950   4.291
    3TYR    SC2  362   7.487   3.042   4.148
    3TYR    SC3  363   7.404   2.912   3.961
    1TYR     BB  364   2.171   0.843   8.247
    1TYR    SC1  365   2.366   0.609   8.312
    1TYR    SC2  366   2.209   0.430   8.274
    1TYR    SC3  367   2.384   0.294   8.174
    2LYS     BB  368   2.069   0.627   7.955
    2LYS    SC1  369   1.859   0.850   7.848
    2LYS    SC2  370   1.619   0.981   7.667
    3TYR     BB  371   1.858   0.389   7.902
    3TYR    SC1  372   2.035   0.158   7.893
    3TYR    SC2  373   1.897  -0.037   7.853
    3TYR    SC3  374   2.065  -0.128   7.703
    1TYR     BB  375   5.417   2.998   3.745
    1TYR    SC1  376   5.669   3.067   3.915
    1TYR    SC2  377   5.833   2.998   3.753
    1TYR    SC3  378   5.976   3.185   3.814
    2LYS     BB  379   5.609   3.161   3.464
    2LYS    SC1  380   5.366   3.115   3.255
    2LYS    SC2  381   5.206   3.107   2.968
    3TYR     BB  382   5.827   3.070   3.245
    3TYR    SC1  383   6.070   3.186   3.355
    3TYR    SC2  384   6.251   3.130   3.205
    3TYR    SC3  385   6.346   3.352   3.233
    1TYR     BB  386   2.314   4.363   5.779
    1TYR    SC1  387   2.485   4.148   5.631
    1TYR    SC2  388   2.352   4.139   5.431
    1TYR    SC3  389   2.552   4.115   5.295
    2LYS     BB  390   2.312   4.536   5.444
    2LYS    SC1  391   2.139   4.785   5.561
    2LYS    SC2  392   1.963   5.062   5.560
    3TYR     BB  393   2.134   4.527   5.176
    3TYR    SC1  394   2.310   4.381   4.995
    3TYR    SC2  395   2.197   4.361   4.784
    3TYR    SC3  396   2.404   4.403   4.665
    1TYR     BB  397   1.285   5.208   1.594
    1TYR    SC1  398   1.495   5.215   1.364
    1TYR    SC2  399   1.368   5.354   1.214
    1TYR    SC3  400   1.571   5.468   1.144
    2LYS     BB  401   1.254   5.577   1.525
    2LYS    SC1  402   1.036   5.616   1.762
    2LYS    SC2  403   0.811   5.764   1.949
    3TYR     BB  404   1.084   5.766   1.326
    3TYR    SC1  405   1.287   5.840   1.131
    3TYR    SC2  406   1.182   5.984   0.969
    3TYR    SC3  407   1.379   6.125   0.961
    1TYR     BB  408   4.000   0.706   6.396
    1TYR    SC1  409   3.971   0.452   6.572
    1TYR    SC2  410   4.126   0.517   6.744
    1TYR    SC3  411   3.984   0.419   6.915
    2LYS     BB  412   3.982   0.890   6.725
    2LYS    SC1  413   4.003   1.179   6.579
    2LYS    SC2  414   4.035   1.504   6.548
    3TYR     BB  415   4.189   0.981   6.954
    3TYR    SC1  416   4.130   0.788   7.164
    3TYR    SC2  417   4.275   0.836   7.350
    3TYR    SC3  418   4.094   0.792   7.507
    1TYR     BB  419   1.317   3.858   8.298
    1TYR    SC1  420   1.620   3.834   8.231
    1TYR    SC2  421   1.598   3.845   7.991
    1TYR    SC3  422   1.800   3.979   7.975
    2LYS     BB  423   1.319   4.129   8.036
    2LYS    SC1  424   1.004   4.191   8.080
    2LYS    SC2  425   0.708   4.322   8.026
    3TYR     BB  426   1.287   4.146   7.716
    3TYR    SC1  427   1.562   4.192   7.632
    3TYR    SC2  428   1.564   4.208   7.392
    3TYR    SC3  429   1.725   4.389   7.402
    1TYR     BB  430   6.551   2.599   0.649
    1TYR    SC1  431   6.270   2.702   0.565
    1TYR    SC2  432   6.152   2.495   0.599
    1TYR    SC3  433   5.959   2.616   0.685
    2LYS     BB  434   6.364   2.435   0.932
    2LYS    SC1  435   6.637   2.314   1.059
    2LYS    SC2  436   6.830   2.135   1.256
    3TYR     BB  437   6.208   2.158   0.981
    3TYR    SC1  438   5.930   2.246   0.971
    3TYR    SC2  439   5.792   2.052   1.004
    3TYR    SC3  440   5.640   2.181   1.144
    1TYR     BB  441   6.282   3.036   6.430
    1TYR    SC1  442   6.425   2.791   6.304
    1TYR    SC2  443   6.417   2.867   6.076
    1TYR    SC3  444   6.639   2.776   6.034
    2LYS     BB  445   6.505   3.236   6.202
    2LYS    SC1  446   6.387   3.517   6.313
    2LYS    SC2  447   6.335   3.841   6.331
    3TYR     BB  448   6.495   3.342   5.898
    3TYR    SC1  449   6.682   3.159   5.768
    3TYR    SC2  450   6.691   3.219   5.535
    3TYR    SC3  451   6.931   3.181   5.532
    1TYR     BB  452   2.538   4.206   3.875
    1TYR    SC1  453   2.534   3.999   4.108
    1TYR    SC2  454   2.636   3.818   3.987
    1TYR    SC3  455   2.760   3.751   4.184
    2LYS     BB  456   2.888   4.077   3.817
    2LYS    SC1  457   2.936   4.283   3.571
    2LYS    SC2  458   3.085   4.422   3.313
    3TYR     BB  459   3.025   3.836   3.654
    3TYR    SC1  460   3.092   3.652   3.869
    3TYR    SC2  461   3.198   3.459   3.770
    3TYR    SC3  462   3.358   3.449   3.953
    1TYR     BB  463   6.258   5.350   4.061
    1TYR    SC1  464   6.522   5.214   4.155
    1TYR    SC2  465   6.672   5.381   4.068
    1TYR    SC3  466   6.815   5.357   4.263
    2LYS     BB  467   6.419   5.666   4.189
    2LYS    SC1  468   6.159   5.844   4.113
    2LYS    SC2  469   5.975   6.112   4.066
    3TYR     BB  470   6.619   5.891   4.074
    3TYR    SC1  471   6.868   5.820   4.207
    3TYR    SC2  472   7.036   5.977   4.135
    3TYR    SC3  473   7.128   5.986   4.360
    1TYR     BB  474   2.123   4.852   1.468
    1TYR    SC1  475   2.391   4.739   1.356
    1TYR    SC2  476   2.534   4.832   1.526
    1TYR    SC3  477   2.671   4.631   1.525
    2LYS     BB  478   2.259   4.739   1.801
    2LYS    SC1  479   1.992   4.837   1.957
    2LYS    SC2  480   1.793   4.908   2.209
    3TYR     BB  481   2.448   4.863   2.031
    3TYR    SC1  482   2.696   4.717   1.985
    3TYR    SC2  483   2.857   4.793   2.148
    3TYR    SC3  484   2.939   4.566   2.178
    1TYR     BB  485   5.456   2.163   7.349
    1TYR    SC1  486   5.252   2.346   7.203
    1TYR    SC2  487   5.364   2.350   6.990
    1TYR    SC3  488   5.150   2.343   6.874
    2LYS     BB  489   5.446   1.961   7.031
    2LYS    SC1  490   5.653   1.741   7.149
    2LYS    SC2  491   5.856   1.483   7.152
    3TYR     BB  492   5.596   1.963   6.746
    3TYR    SC1  493   5.390   2.075   6.573
    3TYR    SC2  494   5.481   2.087   6.351
    3TYR    SC3  495   5.269   2.016   6.257
    1TYR     BB  496   3.794   5.146   4.565
    1TYR    SC1  497   3.558   5.231   4.380
    1TYR    SC2  498   3.692   5.282   4.186
    1TYR    SC3  499   3.521   5.189   4.040
    2LYS     BB  500   3.917   4.960   4.261
    2LYS    SC1  501   4.174   4.844   4.421
    2LYS    SC2  502   4.460   4.691   4.470
    3TYR     BB  503   4.097   5.027   4.003
    3TYR    SC1  504   3.894   5.046   3.795
    3TYR    SC2  505   4.006   5.096   3.588
    3TYR    SC3  506   3.860   4.945   3.467
    1TYR     BB  507   3.462   2.212   3.383
    1TYR    SC1  508   3.263   2.034   3.543
    1TYR    SC2  509   3.407   1.994   3.733
    1TYR    SC3  510   3.216   2.009   3.883
    2LYS     BB  511   3.525   2.376   3.717
    2LYS    SC1  512   3.735   2.586   3.588
    2LYS    SC2  513   3.964   2.822   3.576
    3TYR     BB  514   3.718   2.326   3.970
    3TYR    SC1  515   3.530   2.215   4.164
    3TYR    SC2  516   3.653   2.169   4.366
    3TYR    SC3  517   3.468   2.249   4.501
    1TYR     BB  518   7.383   0.812   4.434
    1TYR    SC1  519   7.600   0.637   4.296
    1TYR    SC2  520   7.475   0.590   4.095
    1TYR    SC3  521   7.678   0.607   3.962
    2LYS     BB  522   7.346   0.968   4.092
    2LYS    SC1  523   7.120   1.175   4.198
    2LYS    SC2  524   6.885   1.405   4.185
    3TYR     BB  525   7.178   0.908   3.824
    3TYR    SC1  526   7.385   0.799   3.650
    3TYR    SC2  527   7.282   0.745   3.439
    3TYR    SC3  528   7.476   0.828   3.320
    1TYR     BB  529   4.179   0.166   4.791
    1TYR    SC1  530   4.381  -0.025   4.930
    1TYR    SC2  531   4.409   0.103   5.132
    1TYR    SC3  532   4.418  -0.100   5.264
    2LYS     BB  533   4.017   0.180   5.131
    2LYS    SC1  534   3.782   0.376   5.024
    2LYS    SC2  535   3.522   0.577   5.036
    3TYR     BB  536   4.051   0.353   5.401
    3TYR    SC1  537   4.185   0.161   5.575
    3TYR    SC2  538   4.222   0.270   5.787
    3TYR    SC3  539   4.165   0.065   5.905
    1TYR     BB  540   6.152   6.057   6.330
    1TYR    SC1  541   6.056   6.349   6.380
    1TYR    SC2  542   6.131   6.440   6.170
    1TYR    SC3  543   5.933   6.581   6.157
    2LYS     BB  544   6.005   6.108   5.987
    2LYS    SC1  545   6.082   5.806   5.896
    2LYS    SC2  546   6.122   5.548   5.698
    3TYR     BB  547   6.105   6.228   5.704
    3TYR    SC1  548   5.968   6.485   5.700
    3TYR    SC2  549   6.029   6.595   5.494
    3TYR    SC3  550   5.801   6.676   5.467
    1TYR     BB  551   1.316   5.014   4.233
    1TYR    SC1  552   1.581   5.148   4.326
    1TYR    SC2  553   1.505   5.216   4.543
    1TYR    SC3  554   1.722   5.163   4.640
    2LYS     BB  555   1.314   4.867   4.580
    2LYS    SC1  556   1.040   4.703   4.522
    2LYS    SC2  557   0.776   4.518   4.583
    3TYR     BB  558   1.210   4.955   4.872
    3TYR    SC1  559   1.461   5.025   5.003
    3TYR    SC2  560   1.408   5.096   5.227
    3TYR    SC3  561   1.603   4.979   5.313
    1TYR     BB  562   6.328   3.033   2.446
    1TYR    SC1  563   6.331   2.761   2.596
    1TYR    SC2  564   6.551   2.692   2.526
    1TYR    SC3  565   6.593   2.596   2.745
    2LYS     BB  566   6.679   3.067   2.578
    2LYS    SC1  567   6.715   3.359   2.442
    2LYS    SC2  568   6.866   3.634   2.343
    3TYR     BB  569   6.975   2.977   2.484
    3TYR    SC1  570   7.027   2.755   2.665
    3TYR    SC2  571   7.246   2.670   2.614
    3TYR    SC3  572   7.293   2.639   2.850
    1TYR     BB  573   0.859   6.564   7.696
    1TYR    SC1  574   0.842   6.253   7.690
    1TYR    SC2  575   0.730   6.227   7.902
    1TYR    SC3  576   0.597   6.045   7.812
    2LYS     BB  577   0.502   6.543   7.815
    2LYS    SC1  578   0.475   6.866   7.827
    2LYS    SC2  579   0.343   7.160   7.893
    3TYR     BB  580   0.350   6.511   8.097
    3TYR    SC1  581   0.265   6.232   8.084
    3TYR    SC2  582   0.147   6.183   8.288
    3TYR    SC3  583  -0.017   6.052   8.165
    1TYR     BB  584   0.869   5.020   6.581
    1TYR    SC1  585   0.770   4.754   6.709
    1TYR    SC2  586   0.894   4.606   6.565
    1TYR    SC3  587   0.937   4.457   6.752
    2LYS     BB  588   1.207   4.854   6.588
    2LYS    SC1  589   1.352   5.115   6.462
    2LYS    SC2  590   1.590   5.299   6.330
    3TYR     BB  591   1.375   4.657   6.396
    3TYR    SC1  592   1.350   4.404   6.538
    3TYR    SC2  593   1.470   4.237   6.411
    3TYR    SC3  594   1.555   4.138   6.616
    1TYR     BB  595   1.190   3.842   2.133
    1TYR    SC1  596   0.910   3.861   2.267
    1TYR    SC2  597   0.799   3.974   2.086
    1TYR    SC3  598   0.597   3.845   2.125
    2LYS     BB  599   0.994   3.741   1.827
    2LYS    SC1  600   1.264   3.702   1.652
    2LYS    SC2  601   1.453   3.651   1.388
    3TYR     BB  602   0.847   3.891   1.582
    3TYR    SC1  603   0.567   3.861   1.658
    3TYR    SC2  604   0.434   3.968   1.487
    3TYR    SC3  605   0.270   3.789   1.499
    1TYR     BB  606   6.718   5.336   0.928
    1TYR    SC1  607   6.992   5.466   0.999
    1TYR    SC2  608   6.932   5.541   1.219
    1TYR    SC3  609   7.154   5.486   1.302
    2LYS     BB  610   6.737   5.197   1.279
    2LYS    SC1  611   6.456   5.039   1.244
    2LYS    SC2  612   6.193   4.862   1.328
    3TYR     BB  613   6.656   5.296   1.575
    3TYR    SC1  614   6.916   5.363   1.686
    3TYR    SC2  615   6.881   5.441   1.911
    3TYR    SC3  616   7.079   5.322   1.987
    1TYR     BB  617   3.328   0.486   4.058
    1TYR    SC1  618   3.303   0.178   4.089
    1TYR    SC2  619   3.502   0.120   3.967
    1TYR    SC3  620   3.549  -0.060   4.123
    2LYS     BB  621   3.691   0.426   4.141
    2LYS    SC1  622   3.760   0.743   4.126
    2LYS    SC2  623   3.941   1.017   4.121
    3TYR     BB  624   3.960   0.351   3.979
    3TYR    SC1  625   3.993   0.071   4.050
    3TYR    SC2  626   4.191  -0.009   3.938
    3TYR    SC3  627   4.253  -0.138   4.135
    1TYR     BB  628   5.525   0.758   5.811
    1TYR    SC1  629   5.314   0.907   5.985
    1TYR    SC2  630   5.310   1.111   5.857
    1TYR    SC3  631   5.070   1.131   5.891
    2LYS     BB  632   5.326   0.895   5.521
    2LYS    SC1  633   5.519   0.750   5.304
    2LYS    SC2  634   5.646   0.672   5.012
    3TYR     BB  635   5.321   1.167   5.347
    3TYR    SC1  636   5.083   1.297   5.453
    3TYR    SC2  637   5.057   1.506   5.336
    3TYR    SC3  638   4.817   1.475   5.326
    1TYR     BB  639   7.310   0.341   6.577
    1TYR    SC1  640   7.052   0.443   6.717
    1TYR    SC2  641   7.072   0.308   6.916
    1TYR    SC3  642   6.989   0.490   7.052
    2LYS     BB  643   7.466   0.379   6.918
    2LYS    SC1  644   7.756   0.284   6.810
    2LYS    SC2  645   8.071   0.190   6.821
    3TYR     BB  646   7.496   0.198   7.184
    3TYR    SC1  647   7.301   0.324   7.360
    3TYR    SC2  648   7.304   0.204   7.569
    3TYR    SC3  649   7.283   0.412   7.692
    1TYR     BB  650   0.025   1.271   1.000
    1TYR    SC1  651  -0.011   1.039   1.203
    1TYR    SC2  652   0.197   0.926   1.154
    1TYR    SC3  653   0.226   0.872   1.390
    2LYS     BB  654   0.378   1.281   1.131
    2LYS    SC1  655   0.456   1.531   0.939
    2LYS    SC2  656   0.644   1.755   0.789
    3TYR     BB  657   0.657   1.133   1.066
    3TYR    SC1  658   0.677   0.948   1.290
    3TYR    SC2  659   0.882   0.824   1.263
    3TYR    SC3  660   0.925   0.836   1.501
    1TYR     BB  661   3.838   0.755   1.211
    1TYR    SC1  662   4.076   0.722   1.013
    1TYR    SC2  663   3.982   0.853   0.834
    1TYR    SC3  664   4.201   0.945   0.782
    2LYS     BB  665   3.847   1.116   1.103
    2LYS    SC1  666   3.604   1.195   1.302
    2LYS    SC2  667   3.369   1.378   1.441
    3TYR     BB  668   3.721   1.293   0.865
    3TYR    SC1  669   3.953   1.332   0.693
    3TYR    SC2  670   3.882   1.464   0.505
    3TYR    SC3  671   4.090   1.590   0.511
    1TYR     BB  672   6.691   7.116   5.021
    1TYR    SC1  673   6.531   7.383   5.020
    1TYR    SC2  674   6.635   7.478   4.824
    1TYR    SC3  675   6.423   7.572   4.753
    2LYS     BB  676   6.624   7.118   4.650
    2LYS    SC1  677   6.777   6.835   4.608
    2LYS    SC2  678   6.913   6.582   4.449
    3TYR     BB  679   6.763   7.242   4.387
    3TYR    SC1  680   6.585   7.465   4.327
    3TYR    SC2  681   6.670   7.575   4.131
    3TYR    SC3  682   6.444   7.605   4.046
    1TYR     BB  683   0.365   2.842   6.772
    1TYR    SC1  684   0.220   2.833   6.497
    1TYR    SC2  685   0.224   3.070   6.455
    1TYR    SC3  686   0.266   3.031   6.219
    2LYS     BB  687   0.596   3.086   6.601
    2LYS    SC1  688   0.778   3.119   6.867
    2LYS    SC2  689   1.011   3.239   7.065
    3TYR     BB  690   0.603   3.403   6.546
    3TYR    SC1  691   0.532   3.414   6.263
    3TYR    SC2  692   0.531   3.645   6.197
    3TYR    SC3  693   0.635   3.589   5.985
    1TYR     BB  694   4.919   0.633   6.754
    1TYR    SC1  695   4.793   0.488   7.000
    1TYR    SC2  696   4.975   0.528   7.152
    1TYR    SC3  697   4.818   0.563   7.335
    2LYS     BB  698   5.011   0.898   7.006
    2LYS    SC1  699   5.147   1.084   6.778
    2LYS    SC2  700   5.318   1.333   6.648
    3TYR     BB  701   5.255   0.954   7.209
    3TYR    SC1  702   5.133   0.885   7.465
    3TYR    SC2  703   5.299   0.919   7.636
    3TYR    SC3  704   5.131   1.012   7.785
    1TYR     BB  705  -0.175   4.659   3.052
    1TYR    SC1  706   0.117   4.761   3.087
    1TYR    SC2  707   0.226   4.553   3.033
    1TYR    SC3  708   0.402   4.673   2.916
    2LYS     BB  709  -0.040   4.495   2.741
    2LYS    SC1  710  -0.331   4.375   2.663
    2LYS    SC2  711  -0.556   4.197   2.502
    3TYR     BB  712   0.104   4.216   2.667
    3TYR    SC1  713   0.380   4.303   2.629
    3TYR    SC2  714   0.510   4.108   2.572
    3TYR    SC3  715   0.636   4.237   2.408
    1TYR     BB  716   6.409   3.596   8.190
    1TYR    SC1  717   6.327   3.351   8.015
    1TYR    SC2  718   6.256   3.477   7.822
    1TYR    SC3  719   6.349   3.308   7.674
    2LYS     BB  720   6.568   3.721   7.872
    2LYS    SC1  721   6.679   3.988   8.018
    2LYS    SC2  722   6.818   4.284   8.051
    3TYR     BB  723   6.476   3.891   7.614
    3TYR    SC1  724   6.456   3.681   7.412
    3TYR    SC2  725   6.386   3.786   7.206
    3TYR    SC3  726   6.538   3.644   7.080
    1TYR     BB  727   5.758   4.368   5.065
    1TYR    SC1  728   5.955   4.199   5.236
    1TYR    SC2  729   6.026   4.376   5.382
    1TYR    SC3  730   6.032   4.223   5.570
    2LYS     BB  731   5.649   4.509   5.398
    2LYS    SC1  732   5.425   4.698   5.259
    2LYS    SC2  733   5.195   4.930   5.233
    3TYR     BB  734   5.742   4.748   5.593
    3TYR    SC1  735   5.878   4.599   5.804
    3TYR    SC2  736   5.958   4.759   5.965
    3TYR    SC3  737   5.896   4.611   6.148
    1TYR     BB  738   0.686   7.526   8.025
    1TYR    SC1  739   0.883   7.510   7.784
    1TYR    SC2  740   0.724   7.572   7.614
    1TYR    SC3  741   0.894   7.701   7.498
    2LYS     BB  742   0.571   7.846   7.862
    2LYS    SC1  743   0.357   7.904   8.098
    2LYS    SC2  744   0.110   8.049   8.257
    3TYR     BB  745   0.358   7.930   7.635
    3TYR    SC1  746   0.533   7.986   7.410
    3TYR    SC2  747   0.394   8.053   7.225
    3TYR    SC3  748   0.555   8.224   7.161
    1TYR     BB  749   3.005  -0.230   1.472
    1TYR    SC1  750   3.176  -0.028   1.310
    1TYR    SC2  751   3.146   0.160   1.457
    1TYR    SC3  752   3.376   0.229   1.421
    2LYS     BB  753   3.184  -0.085   1.770
    2LYS    SC1  754   3.031  -0.284   1.975
    2LYS    SC2  755   2.932  -0.412   2.261
    3TYR     BB  756   3.143   0.165   1.970
    3TYR    SC1  757   3.348   0.349   1.874
    3TYR    SC2  758   3.337   0.547   2.009
    3TYR    SC3  759   3.580   0.562   2.013
    1TYR     BB  760  -0.253   7.074   6.648
    1TYR    SC1  761  -0.166   7.168   6.932
    1TYR    SC2  762  -0.117   6.950   7.021
    1TYR    SC3  763   0.074   7.039   7.142
    2LYS     BB  764   0.050   6.850   6.671
    2LYS    SC1  765  -0.001   6.730   6.374
    2LYS    SC2  766   0.037   6.536   6.112
    3TYR     BB  767   0.117   6.557   6.788
    3TYR    SC1  768   0.262   6.624   7.031
    3TYR    SC2  769   0.324   6.417   7.138
    3TYR    SC3  770   0.541   6.509   7.197
    1TYR     BB  771   6.551   6.863   3.525
    1TYR    SC1  772   6.414   7.046   3.737
    1TYR    SC2  773   6.586   7.214   3.746
    1TYR    SC3  774   6.419   7.389   3.766
    2LYS     BB  775   6.625   7.188   3.349
    2LYS    SC1  776   6.771   7.034   3.103
    2LYS    SC2  777   6.945   6.995   2.827
    3TYR     BB  778   6.857   7.412   3.357
    3TYR    SC1  779   6.722   7.627   3.500
    3TYR    SC2  780   6.877   7.810   3.519
    3TYR    SC3  781   6.700   7.970   3.475
    1TYR     BB  782   4.984   3.780   1.256
    1TYR    SC1  783   4.905   4.063   1.157
    1TYR    SC2  784   5.075   4.082   0.987
    1TYR    SC3  785   4.918   4.196   0.839
    2LYS     BB  786   5.013   3.700   0.889
    2LYS    SC1  787   5.092   3.391   0.950
    2LYS    SC2  788   5.191   3.083   0.891
    3TYR     BB  789   5.239   3.722   0.661
    3TYR    SC1  790   5.145   3.952   0.509
    3TYR    SC2  791   5.301   3.989   0.329
    3TYR    SC3  792   5.118   4.040   0.177
    1TYR     BB  793   3.598   3.091   5.111
    1TYR    SC1  794   3.805   2.987   4.904
    1TYR    SC2  795   4.002   3.037   5.033
    1TYR    SC3  796   4.108   2.833   4.956
    2LYS     BB  797   3.814   2.911   5.362
    2LYS    SC1  798   3.619   2.993   5.608
    2LYS    SC2  799   3.514   3.026   5.917
    3TYR     BB  800   4.076   2.977   5.537
    3TYR    SC1  801   4.281   2.829   5.392
    3TYR    SC2  802   4.490   2.864   5.505
    3TYR    SC3  803   4.551   2.631   5.471
    1TYR     BB  804   3.676   6.553   1.127
    1TYR    SC1  805   3.980   6.578   1.188
    1TYR    SC2  806   3.960   6.730   1.373
    1TYR    SC3  807   4.141   6.617   1.489
    2LYS     BB  808   3.642   6.525   1.502
    2LYS    SC1  809   3.321   6.488   1.482
    2LYS    SC2  810   3.009   6.462   1.583
    3TYR     BB  811   3.613   6.727   1.751
    3TYR    SC1  812   3.880   6.714   1.867
    3TYR    SC2  813   3.884   6.859   2.058
    3TYR    SC3  814   4.017   6.699   2.182
    1TYR     BB  815   5.190   4.859   3.747
    1TYR    SC1  816   5.088   4.976   4.017
    1TYR    SC2  817   5.270   5.129   4.052
    1TYR    SC3  818   5.116   5.295   4.142
    2LYS     BB  819   5.265   5.218   3.662
    2LYS    SC1  820   5.374   5.139   3.368
    2LYS    SC2  821   5.515   5.177   3.073
    3TYR     BB  822   5.508   5.424   3.707
    3TYR    SC1  823   5.402   5.593   3.920
    3TYR    SC2  824   5.570   5.758   3.972
    3TYR    SC3  825   5.399   5.928   3.996
    1TYR     BB  826   5.863   5.824   2.969
    1TYR    SC1  827   5.982   6.090   3.078
    1TYR    SC2  828   5.863   6.238   2.930
    1TYR    SC3  829   5.836   6.399   3.110
    2LYS     BB  830   5.536   6.012   2.977
    2LYS    SC1  831   5.371   5.754   2.871
    2LYS    SC2  832   5.117   5.578   2.759
    3TYR     BB  833   5.373   6.208   2.780
    3TYR    SC1  834   5.419   6.467   2.907
    3TYR    SC2  835   5.305   6.633   2.775
    3TYR    SC3  836   5.234   6.748   2.977
    1TYR     BB  837   7.395   4.381   0.482
    1TYR    SC1  838   7.682   4.501   0.481
    1TYR    SC2  839   7.671   4.598   0.261
    1TYR    SC3  840   7.797   4.791   0.337
    2LYS     BB  841   7.296   4.713   0.335
    2LYS    SC1  842   6.983   4.630   0.326
    2LYS    SC2  843   6.663   4.650   0.255
    3TYR     BB  844   7.279   4.844   0.041
    3TYR    SC1  845   7.512   5.019   0.043
    3TYR    SC2  846   7.522   5.130  -0.171
    3TYR    SC3  847   7.589   5.337  -0.064
    1TYR     BB  848   4.587   2.179   1.303
    1TYR    SC1  849   4.795   2.225   1.076
    1TYR    SC2  850   4.854   2.451   1.137
    1TYR    SC3  851   5.087   2.409   1.080
    2LYS     BB  852   4.845   2.344   1.522
    2LYS    SC1  853   4.661   2.309   1.786
    2LYS    SC2  854   4.563   2.344   2.098
    3TYR     BB  855   4.924   2.645   1.606
    3TYR    SC1  856   5.165   2.688   1.448
    3TYR    SC2  857   5.244   2.910   1.495
    3TYR    SC3  858   5.474   2.832   1.496
    1TYR     BB  859   4.562   0.143   3.407
    1TYR    SC1  860   4.435   0.280   3.158
    1TYR    SC2  861   4.443   0.506   3.243
    1TYR    SC3  862   4.499   0.590   3.022
    2LYS     BB  863   4.805   0.432   3.394
    2LYS    SC1  864   4.972   0.318   3.648
    2LYS    SC2  865   5.193   0.313   3.891
    3TYR     BB  866   4.818   0.732   3.509
    3TYR    SC1  867   4.765   0.887   3.268
    3TYR    SC2  868   4.769   1.120   3.329
    3TYR    SC3  869   4.885   1.176   3.123
    1TYR     BB  870   5.934   5.899   0.879
    1TYR    SC1  871   6.020   5.664   0.693
    1TYR    SC2  872   5.945   5.762   0.486
    1TYR    SC3  873   6.138   5.673   0.370
    2LYS     BB  874   6.084   6.116   0.609
    2LYS    SC1  875   6.018   6.387   0.775
    2LYS    SC2  876   5.988   6.709   0.837
    3TYR     BB  877   5.984   6.250   0.334
    3TYR    SC1  878   6.112   6.078   0.137
    3TYR    SC2  879   6.051   6.160  -0.081
    3TYR    SC3  880   6.277   6.119  -0.163
    1TYR     BB  881   6.941   1.135   1.654
    1TYR    SC1  882   6.831   1.360   1.839
    1TYR    SC2  883   6.807   1.224   2.037
    1TYR    SC3  884   6.881   1.409   2.176
    2LYS     BB  885   7.154   1.045   1.952
    2LYS    SC1  886   7.299   0.804   1.791
    2LYS    SC2  887   7.488   0.540   1.740
    3TYR     BB  888   7.124   0.863   2.216
    3TYR    SC1  889   7.085   1.066   2.421
    3TYR    SC2  890   7.059   0.952   2.632
    3TYR    SC3  891   7.193   1.121   2.743
    1TYR     BB  892   4.351   5.811   5.986
    1TYR    SC1  893   4.144   5.987   6.139
    1TYR    SC2  894   4.109   5.837   6.323
    1TYR    SC3  895   4.095   6.024   6.477
    2LYS     BB  896   4.501   5.759   6.328
    2LYS    SC1  897   4.739   5.574   6.209
    2LYS    SC2  898   4.998   5.372   6.207
    3TYR     BB  899   4.457   5.557   6.575
    3TYR    SC1  900   4.316   5.728   6.765
    3TYR    SC2  901   4.271   5.597   6.962
    3TYR    SC3  902   4.324   5.787   7.104
    1TYR     BB  903   3.177   7.891   3.074
    1TYR    SC1  904   3.289   7.629   3.200
    1TYR    SC2  905   3.303   7.503   2.995
    1TYR    SC3  906   3.511   7.401   3.068
    2LYS     BB  907   3.436   7.830   2.808
    2LYS    SC1  908   3.354   8.100   2.649
    2LYS    SC2  909   3.348   8.324   2.408
    3TYR     BB  910   3.456   7.664   2.532
    3TYR    SC1  911   3.620   7.437   2.614
    3TYR    SC2  912   3.649   7.295   2.422
    3TYR    SC3  913   3.881   7.256   2.482
    1TYR     BB  914   7.825   4.665   4.795
    1TYR    SC1  915   7.716   4.914   4.946
    1TYR    SC2  916   7.648   4.799   5.147
    1TYR    SC3  917   7.722   4.987   5.283
    2LYS     BB  918   7.982   4.579   5.127
    2LYS    SC1  919   8.120   4.312   5.007
    2LYS    SC2  920   8.284   4.027   5.004
    3TYR     BB  921   7.893   4.424   5.395
    3TYR    SC1  922   7.848   4.646   5.578
    3TYR    SC2  923   7.780   4.553   5.790
    3TYR    SC3  924   7.915   4.717   5.909
    1TYR     BB  925   6.572   7.791   0.882
    1TYR    SC1  926   6.528   7.582   1.108
    1TYR    SC2  927   6.707   7.433   1.045
    1TYR    SC3  928   6.759   7.391   1.278
    2LYS     BB  929   6.937   7.751   0.968
    2LYS    SC1  930   7.026   7.971   0.747
    2LYS    SC2  931   7.225   8.150   0.557
    3TYR     BB  932   7.178   7.555   0.883
    3TYR    SC1  933   7.199   7.385   1.118
    3TYR    SC2  934   7.376   7.226   1.078
    3TYR    SC3  935   7.452   7.248   1.307
    1TYR     BB  936   3.111   2.577   7.236
    1TYR    SC1  937   3.167   2.409   6.980
    1TYR    SC2  938   3.054   2.553   6.825
    1TYR    SC3  939   3.225   2.513   6.657
    2LYS     BB  940   3.204   2.870   7.017
    2LYS    SC1  941   3.163   3.081   7.260
    2LYS    SC2  942   3.138   3.370   7.413
    3TYR     BB  943   3.053   3.066   6.810
    3TYR    SC1  944   3.148   2.963   6.555
    3TYR    SC2  945   3.047   3.096   6.381
    3TYR    SC3  946   3.255   3.095   6.255
    1TYR     BB  947   1.299   5.802   6.276
    1TYR    SC1  948   1.525   5.752   6.069
    1TYR    SC2  949   1.404   5.828   5.875
    1TYR    SC3  950   1.606   5.929   5.785
    2LYS     BB  951   1.255   6.129   6.093
    2LYS    SC1  952   1.018   6.223   6.293
    2LYS    SC2  953   0.772   6.406   6.410
    3TYR     BB  954   1.092   6.233   5.835
    3TYR    SC1  955   1.305   6.257   5.639
    3TYR    SC2  956   1.206   6.335   5.433
    3TYR    SC3  957   1.396   6.481   5.393
    1TYR     BB  958   4.050   3.629   3.637
    1TYR    SC1  959   4.262   3.412   3.707
    1TYR    SC2  960   4.416   3.464   3.529
    1TYR    SC3  961   4.604   3.422   3.676
    2LYS     BB  962   4.350   3.853   3.593
    2LYS    SC1  963   4.164   4.109   3.523
    2LYS    SC2  964   4.086   4.413   3.426
    3TYR     BB  965   4.556   3.926   3.356
    3TYR    SC1  966   4.793   3.779   3.439
    3TYR    SC2  967   4.964   3.819   3.274
    3TYR    SC3  968   5.133   3.836   3.448
    1TYR     BB  969   8.241   5.970   3.748
    1TYR    SC1  970   8.345   6.006   3.457
    1TYR    SC2  971   8.268   5.795   3.372
    1TYR    SC3  972   8.209   5.898   3.160
    2LYS     BB  973   7.929   5.842   3.580
    2LYS    SC1  974   7.780   5.796   3.864
    2LYS    SC2  975   7.550   5.696   4.076
    3TYR     BB  976   7.822   5.559   3.468
    3TYR    SC1  977   7.850   5.597   3.180
    3TYR    SC2  978   7.776   5.395   3.073
    3TYR    SC3  979   7.667   5.524   2.899
    1TYR     BB  980   4.233   7.199   6.608
    1TYR    SC1  981   4.256   7.101   6.314
    1TYR    SC2  982   4.042   7.183   6.239
    1TYR    SC3  983   4.138   7.246   6.025
    2LYS     BB  984   4.101   7.516   6.453
    2LYS    SC1  985   4.068   7.658   6.742
    2LYS    SC2  986   3.980   7.884   6.963
    3TYR     BB  987   3.815   7.628   6.355
    3TYR    SC1  988   3.841   7.606   6.066
    3TYR    SC2  989   3.636   7.686   5.968
    3TYR    SC3  990   3.759   7.797   5.791
    1TYR     BB  991   4.133   7.073   3.621
    1TYR    SC1  992   4.215   7.000   3.913
    1TYR    SC2  993   4.407   6.867   3.856
    1TYR    SC3  994   4.528   6.955   4.048
    2LYS     BB  995   4.502   7.133   3.573
    2LYS    SC1  996   4.460   7.223   3.265
    2LYS    SC2  997   4.539   7.309   2.958
    3TYR     BB  998   4.761   6.957   3.495
    3TYR    SC1  999   4.893   6.931   3.754
    3TYR    SC2 1000   5.092   6.801   3.721
    3TYR    SC3 1001   5.215   6.944   3.874
    1TYR     BB 1002   4.147   7.126   7.880
    1TYR    SC1 1003   4.199   6.951   7.628
    1TYR    SC2 1004   4.223   7.133   7.472
    1TYR    SC3 1005   4.400   7.014   7.356
    2LYS     BB 1006   4.431   7.335   7.747
    2LYS    SC1 1007   4.416   7.538   8.000
    2LYS    SC2 1008   4.479   7.803   8.184
    3TYR     BB 1009   4.465   7.580   7.541
    3TYR    SC1 1010   4.579   7.445   7.309
    3TYR    SC2 1011   4.613   7.611   7.138
    3TYR    SC3 1012   4.825   7.508   7.078
    1TYR     BB 1013   2.492   1.192   4.194
    1TYR    SC1 1014   2.472   1.461   4.348
    1TYR    SC2 1015   2.388   1.593   4.165
    1TYR    SC3 1016   2.243   1.716   4.316
    2LYS     BB 1017   2.153   1.288   4.059
    2LYS    SC1 1018   2.130   1.013   3.888
    2LYS    SC2 1019   2.009   0.797   3.672
    3TYR     BB 1020   2.039   1.462   3.813
    3TYR    SC1 1021   1.950   1.703   3.950
    3TYR    SC2 1022   1.859   1.852   3.784
    3TYR    SC3 1023   1.680   1.916   3.935
    1TYR     BB 1024   4.805   3.751   2.128
    1TYR    SC1 1025   4.575   3.956   2.077
    1TYR    SC2 1026   4.462   3.829   1.906
    1TYR    SC3 1027   4.246   3.899   1.993
    2LYS     BB 1028   4.528   3.496   2.116
    2LYS    SC1 1029   4.734   3.252   2.175
    2LYS    SC2 1030   4.841   2.944   2.209
    3TYR     BB 1031   4.377   3.324   1.889
    3TYR    SC1 1032   4.122   3.464   1.871
    3TYR    SC2 1033   3.989   3.353   1.705
    3TYR    SC3 1034   3.790   3.379   1.841
    1TYR     BB 1035   4.134   5.236   0.927
    1TYR    SC1 1036   3.825   5.205   0.912
    1TYR    SC2 1037   3.793   5.331   0.710
    1TYR    SC3 1038   3.620   5.176   0.637
    2LYS     BB 1039   4.121   5.160   0.558
    2LYS    SC1 1040   4.444   5.176   0.531
    2LYS    SC2 1041   4.738   5.185   0.386
    3TYR     BB 1042   4.081   5.327   0.285
    3TYR    SC1 1043   3.807   5.258   0.215
    3TYR    SC2 1044   3.752   5.373   0.011
    3TYR    SC3 1045   3.633   5.178  -0.071
    1TYR     BB 1046   7.420   2.450   7.753
    1TYR    SC1 1047   7.321   2.247   7.539
    1TYR    SC2 1048   7.537   2.198   7.444
    1TYR    SC3 1049   7.476   1.964   7.418
    2LYS     BB 1050   7.693   2.198   7.812
    2LYS    SC1 1051   7.825   2.378   8.048
    2LYS    SC2 1052   8.044   2.473   8.274
    3TYR     BB 1053   7.984   2.133   7.688
    3TYR    SC1 1054   7.926   1.895   7.529
    3TYR    SC2 1055   8.131   1.826   7.424
    3TYR    SC3 1056   8.077   1.593   7.465
    1TYR     BB 1057   0.928   3.263   4.903
    1TYR    SC1 1058   0.637   3.363   4.947
    1TYR    SC2 1059   0.559   3.170   5.069
    1TYR    SC3 1060   0.426   3.312   5.215
    2LYS     BB 1061   0.907   3.159   5.265
    2LYS    SC1 1062   1.212   3.049   5.263
    2LYS    SC2 1063   1.484   2.898   5.371
    3TYR     BB 1064   0.806   2.900   5.429
    3TYR    SC1 1065   0.554   2.998   5.538
    3TYR    SC2 1066   0.457   2.819   5.667
    3TYR    SC3 1067   0.385   2.977   5.837
    1TYR     BB 1068   6.273   7.809   5.944
    1TYR    SC1 1069   6.347   7.512   5.887
    1TYR    SC2 1070   6.134   7.446   5.795
    1TYR    SC3 1071   6.245   7.306   5.631
    2LYS     BB 1072   6.115   7.795   5.601
    2LYS    SC1 1073   6.025   8.107   5.617
    2LYS    SC2 1074   5.876   8.387   5.531
    3TYR     BB 1075   5.830   7.710   5.477
    3TYR    SC1 1076   5.895   7.453   5.356
    3TYR    SC2 1077   5.694   7.368   5.255
    3TYR    SC3 1078   5.820   7.287   5.064
    1TYR     BB 1079   0.744   3.487   3.366
    1TYR    SC1 1080   0.842   3.258   3.180
    1TYR    SC2 1081   0.703   3.085   3.272
    1TYR    SC3 1082   0.668   2.991   3.050
    2LYS     BB 1083   0.401   3.346   3.296
    2LYS    SC1 1084   0.257   3.574   3.476
    2LYS    SC2 1085   0.016   3.730   3.636
    3TYR     BB 1086   0.212   3.116   3.419
    3TYR    SC1 1087   0.239   2.907   3.218
    3TYR    SC2 1088   0.104   2.721   3.289
    3TYR    SC3 1089   0.031   2.682   3.060
    1TYR     BB 1090   2.283   6.272   8.064
    1TYR    SC1 1091   2.241   6.580   8.071
    1TYR    SC2 1092   2.301   6.622   7.841
    1TYR    SC3 1093   2.127   6.791   7.824
    2LYS     BB 1094   2.102   6.292   7.734
    2LYS    SC1 1095   2.118   5.971   7.692
    2LYS    SC2 1096   2.091   5.681   7.540
    3TYR     BB 1097   2.180   6.346   7.426
    3TYR    SC1 1098   2.086   6.619   7.390
    3TYR    SC2 1099   2.134   6.683   7.163
    3TYR    SC3 1100   1.920   6.797   7.146
    4W        W 1101   4.010   5.867   1.494
    5W        W 1102   5.106   7.621   1.686
    6W        W 1103   5.683   0.072   4.002
    7W        W 1104   3.484   7.360   2.147
    8W        W 1105   2.537   3.319   3.106
    9W        W 1106   3.635   6.731   2.684
   10W        W 1107   3.112   3.406   6.189
   11W        W 1108   6.617   2.508   3.357
   12W        W 1109   0.928   6.753   6.162
   13W        W 1110   2.972   7.428   4.929
   14W        W 1111   7.158   3.321   3.628
   15W        W 1112   7.256   3.126   1.905
   16W        W 1113   3.548   2.037   0.913
   17W        W 1114   4.614   4.267   3.949
   18W        W 1115   4.204   3.886   1.026
   19W        W 1116   2.552   6.182   3.404
   20W        W 1117   3.957   5.410   1.281
   21W        W 1118   0.331   3.089   3.924
   22W        W 1119   1.975   6.238   5.081
   23W        W 1120   5.364   2.299   5.526
   24W        W 1121   2.937   0.037   5.008
   25W        W 1122   1.453   4.276   3.805
   26W        W 1123   3.032   2.144   5.556
   27W        W 1124   0.429   6.932   3.776
   28W        W 1125   2.769   0.900   5.002
   29W        W 1126   7.929   1.101   3.258
   30W        W 1127   0.180   4.842   4.244
   31W        W 1128   6.949   4.572   2.275
   32W        W 1129   7.654   6.841   5.972
   33W        W 1130   3.181   1.827   1.211
   34W        W 1131   3.430   4.024   2.538
   35W        W 1132   3.545   3.352   0.603
   36W        W 1133   1.440   7.637   5.136
   37W        W 1134   5.533   0.490   3.665
   38W        W 1135   7.517   7.177   2.175
   39W        W 1136   2.251   0.633   4.073
   40W        W 1137   3.736   4.560   6.753
   41W        W 1138   7.851   2.797   3.902
   42W        W 1139   4.599   2.116   6.133
   43W        W 1140   4.568   6.469   2.461
   44W        W 1141   4.819   6.067   6.364
   45W        W 1142   0.606   2.177   6.213
   46W        W 1143   4.639   0.850   7.747
   47W        W 1144   2.617   7.080   0.519
   48W        W 1145   1.180   3.272   4.125
   49W        W 1146   6.733   1.195   3.868
   50W        W 1147   1.407   0.692   3.619
   51W        W 1148   1.602   2.575   3.865
   52W        W 1149   1.242   7.332   1.453
   53W        W 1150   1.855   6.457   3.898
   54W        W 1151   5.253   5.959   0.677
   55W        W 1152   4.050   5.464   2.603
   56W        W 1153   2.220   4.370   2.646
   57W        W 1154   6.449   1.641   4.888
   58W        W 1155   0.387   1.607   7.962
   59W        W 1156   1.261   6.947   0.428
   60W        W 1157   2.307   7.508   1.384
   61W        W 1158   6.442   3.540   3.828
   62W        W 1159   3.367   3.532   4.367
   63W        W 1160   3.230   4.191   0.394
   64W        W 1161   4.803   0.282   2.107
   65W        W 1162   3.462   3.638   5.146
   66W        W 1163   6.619   6.519   2.671
   67W        W 1164   7.309   0.266   0.194
   68W        W 1165   3.211   0.699   7.320
   69W        W 1166   6.292   0.807   0.486
   70W        W 1167   7.424   3.158   0.769
   71W        W 1168   5.880   5.100   7.157
   72W        W 1169   2.098   2.272   1.668
   73W        W 1170   6.438   4.924   7.950
   74W        W 1171   5.937   5.515   6.608
   75W        W 1172   1.608   1.490   1.416
   76W        W 1173   0.024   0.654   7.928
   77W        W 1174   6.084   2.032   2.232
   78W        W 1175   1.816   2.172   7.150
   79W        W 1176   6.188   7.690   0.733
   80W        W 1177   1.268   4.458   2.892
   81W        W 1178   7.814   7.422   5.045
   82W        W 1179   0.819   0.266   0.956
   83W        W 1180   0.750   1.601   4.399
   84W        W 1181   1.797   0.656   7.022
   85W        W 1182   4.102   4.177   4.143
   86W        W 1183   2.391   5.181   5.671
   87W        W 1184   0.259   7.046   0.824
   88W        W 1185   5.650   7.086   2.695
   89W        W 1186   5.269   3.839   4.784
   90W        W 1187   7.915   3.693   5.877
   91W        W 1188   2.032   0.198   0.976
   92W        W 1189   5.922   4.214   1.251
   93W        W 1190   2.383   2.228   2.244
   94W        W 1191   6.591   0.284   2.179
   95W        W 1192   2.239   4.351   6.496
   96W        W 1193   0.275   5.572   1.494
   97W        W 1194   7.405   3.890   1.145
   98W        W 1195   3.515   4.667   4.942
   99W        W 1196   3.714   5.802   5.639
  100W        W 1197   6.165   6.953   1.111
  101W        W 1198   3.678   0.463   4.635
  102W        W 1199   0.266   3.307   6.067
  103W        W 1200   0.569   2.820   0.459
  104W        W 1201   1.384   0.021   3.146
  105W        W 1202   0.853   7.400   1.141
  106W        W 1203   2.052   0.513   6.055
  107W        W 1204   5.561   0.088   6.628
  108W        W 1205   0.770   0.423   0.434
  109W        W 1206   2.607   7.020   6.969
  110W        W 1207   2.810   7.885   0.487
  111W        W 1208   3.742   4.648   2.876
  112W        W 1209   3.497   4.702   7.377
  113W        W 1210   2.552   4.984   3.352
  114W        W 1211   2.997   4.317   1.667
  115W        W 1212   1.083   6.169   5.039
  116W        W 1213   3.990   4.941   5.149
  117W        W 1214   6.021   3.539   3.652
  118W        W 1215   2.808   2.563   2.111
  119W        W 1216   4.883   2.466   7.680
  120W        W 1217   2.332   2.230   1.251
  121W        W 1218   6.511   6.696   6.796
  122W        W 1219   4.572   5.569   2.581
  123W        W 1220   3.491   7.120   0.669
  124W        W 1221   4.149   3.775   0.503
  125W        W 1222   4.457   1.760   0.882
  126W        W 1223   1.068   1.917   5.980
  127W        W 1224   5.990   6.957   3.045
  128W        W 1225   3.216   4.376   2.811
  129W        W 1226   0.845   5.393   2.613
  130W        W 1227   2.615   3.713   1.550
  131W        W 1228   3.555   4.534   2.444
  132W        W 1229   4.290   5.252   2.235
  133W        W 1230   2.818   0.909   4.513
  134W        W 1231   4.043   3.164   1.239
  135W        W 1232   2.314   6.966   3.819
  136W        W 1233   5.000   7.333   7.344
  137W        W 1234   3.631   5.801   0.429
  138W        W 1235   0.307   4.777   6.065
  139W        W 1236   0.738   4.462   0.887
  140W        W 1237   0.049   0.664   0.817
  141W        W 1238   0.564   4.822   1.825
  142W        W 1239   4.805   5.036   6.253
  143W        W 1240   3.710   7.655   3.799
  144W        W 1241   0.612   1.030   7.085
  145W        W 1242   0.018   3.626   5.211
  146W        W 1243   7.280   1.793   5.959
  147W        W 1244   2.590   4.619   1.098
  148W        W 1245   0.505   5.802   6.467
  149W        W 1246   7.009   0.626   1.518
  150W        W 1247   1.273   0.657   6.567
  151W        W 1248   7.214   5.267   4.884
  152W        W 1249   4.013   7.430   1.986
  153W        W 1250   1.334   5.273   7.004
  154W        W 1251   5.923   0.865   0.157
  155W        W 1252   2.861   6.097   1.457
  156W        W 1253   2.192   5.954   2.613
  157W        W 1254   7.281   6.851   6.945
  158W        W 1255   3.774   1.376   4.335
  159W        W 1256   3.628   3.244   0.059
  160W        W 1257   0.347   7.146   3.114
  161W        W 1258   3.678   3.672   0.904
  162W        W 1259   7.741   0.449   0.390
  163W        W 1260   2.608   7.013   1.645
  164W        W 1261   6.121   1.236   7.826
  165W        W 1262   7.235   4.956   6.943
  166W        W 1263   7.603   5.308   4.528
  167W        W 1264   4.545   3.698   6.398
  168W        W 1265   3.100   4.999   4.788
  169W        W 1266   2.201   3.642   2.003
  170W        W 1267   1.229   1.111   5.164
  171W        W 1268   1.495   6.815   1.374
  172W        W 1269   0.800   1.759   3.437
  173W        W 1270   3.677   4.566   4.058
  174W        W 1271   3.060   1.377   1.006
  175W        W 1272   6.225   4.142   0.710
  176W        W 1273   4.317   0.499   1.908
  177W        W 1274   1.345   2.618   2.437
  178W        W 1275   0.190   2.337   5.226
  179W        W 1276   2.368   0.020   4.519
  180W        W 1277   2.731   6.631   0.322
  181W        W 1278   0.428   1.998   1.685
  182W        W 1279   1.161   0.086   5.427
  183W        W 1280   5.285   7.593   5.142
  184W        W 1281   7.071   3.024   0.035
  185W        W 1282   5.973   2.274   4.878
  186W        W 1283   3.485   4.051   4.160
  187W        W 1284   2.242   4.833   0.719
  188W        W 1285   5.497   6.915   4.538
  189W        W 1286   2.980   2.287   7.647
  190W        W 1287   0.298   4.821   0.245
  191W        W 1288   3.681   2.474   1.733
  192W        W 1289   1.186   3.504   2.720
  193W        W 1290   7.495   0.885   7.167
  194W        W 1291   3.843   3.473   5.560
  195W        W 1292   2.179   5.064   7.217
  196W        W 1293   4.348   6.632   6.331
  197W        W 1294   0.068   0.328   2.342
  198W        W 1295   5.498   6.883   4.043
  199W        W 1296   6.524   1.236   6.236
  200W        W 1297   5.849   0.071   4.560
  201W        W 1298   7.408   6.166   4.959
  202W        W 1299   5.832   7.786   6.897
  203W        W 1300   0.698   6.968   1.731
  204W        W 1301   0.445   4.265   0.421
  205W        W 1302   2.499   6.618   5.107
  206W        W 1303   2.303   2.590   3.904
  207W        W 1304   0.907   7.773   0.823
  208W        W 1305   0.171   7.871   4.160
  209W        W 1306   3.559   1.697   5.985
  210W        W 1307   1.325   5.009   3.067
  211W        W 1308   3.618   0.917   3.868
  212W        W 1309   1.347   4.575   1.821
  213W        W 1310   0.626   1.066   4.390
  214W        W 1311   6.745   7.306   0.052
  215W        W 1312   6.058   3.145   0.224
  216W        W 1313   2.843   6.163   4.726
  217W        W 1314   3.664   4.151   3.681
  218W        W 1315   2.867   2.023   2.130
  219W        W 1316   3.002   6.463   5.114
  220W        W 1317   7.841   5.773   4.474
  221W        W 1318   6.988   1.672   0.535
  222W        W 1319   2.995   1.542   6.545
  223W        W 1320   5.791   3.202   6.485
  224W        W 1321   7.851   2.088   6.810
  225W        W 1322   1.278   4.324   5.223
  226W        W 1323   1.768   4.770   0.877
  227W        W 1324   4.800   6.174   2.801
  228W        W 1325   0.995   2.283   0.036
  229W        W 1326   2.434   5.388   4.233
  230W        W 1327   2.627   0.058   3.162
  231W        W 1328   6.572   3.457   4.822
  232W        W 1329   5.078   0.628   5.918
  233W        W 1330   2.301   7.087   5.753
  234W        W 1331   1.257   2.988   3.634
  235W        W 1332   1.958   2.741   4.232
  236W        W 1333   1.209   3.848   3.757
  237W        W 1334   1.171   5.164   0.345
  238W        W 1335   6.131   1.084   5.860
  239W        W 1336   6.559   4.297   3.034
  240W        W 1337   1.930   4.403   3.622
  241W        W 1338   1.653   2.963   7.762
  242W        W 1339   0.845   0.004   1.893
  243W        W 1340   3.685   4.593   1.142
  244W        W 1341   2.903   4.153   4.253
  245W        W 1342   4.763   6.233   1.425
  246W        W 1343   1.429   1.504   5.383
  247W        W 1344   1.814   4.223   0.816
  248W        W 1345   2.405   3.182   5.125
  249W        W 1346   1.022   4.864   2.682
  250W        W 1347   5.328   7.070   1.319
  251W        W 1348   5.922   4.946   4.852
  252W        W 1349   5.649   3.354   2.642
  253W        W 1350   3.528   6.732   6.577
  254W        W 1351   5.659   4.976   2.782
  255W        W 1352   5.314   0.911   3.796
  256W        W 1353   5.943   4.663   6.881
  257W        W 1354   1.579   5.387   0.174
  258W        W 1355   0.395   0.226   3.592
  259W        W 1356   0.846   4.409   1.617
  260W        W 1357   7.103   5.197   3.607
  261W        W 1358   4.036   5.543   3.924
  262W        W 1359   0.108   5.363   5.096
  263W        W 1360   7.672   6.207   4.515
  264W        W 1361   4.218   6.098   3.471
  265W        W 1362   5.229   4.522   7.471
  266W        W 1363   1.375   3.430   1.164
  267W        W 1364   1.671   4.157   5.560
  268W        W 1365   7.044   7.394   2.370
  269W        W 1366   5.422   3.768   7.884
  270W        W 1367   6.533   5.993   5.084
  271W        W 1368   3.025   4.593   7.244
  272W        W 1369   4.435   3.823   1.570
  273W        W 1370   5.675   6.250   7.689
  274W        W 1371   2.804   4.582   3.176
  275W        W 1372   3.775   3.827   1.334
  276W        W 1373   1.353   5.632   0.531
  277W        W 1374   0.524   2.258   3.431
  278W        W 1375   2.563   2.588   2.961
  279W        W 1376   3.545   7.783   0.149
  280W        W 1377   0.087   7.329   0.257
  281W        W 1378   1.748   1.354   0.943
  282W        W 1379   1.742   1.862   7.722
  283W        W 1380   0.114   5.180   2.143
  284W        W 1381   6.784   5.617   3.362
  285W        W 1382   0.792   5.281   1.646
  286W        W 1383   0.422   5.714   0.978
  287W        W 1384   4.647   7.242   4.709
  288W        W 1385   7.841   4.210   2.193
  289W        W 1386   2.805   1.992   3.466
  290W        W 1387   6.557   0.721   1.160
  291W        W 1388   0.535   4.424   3.478
  292W        W 1389   1.979   2.104   6.411
  293W        W 1390   3.150   3.798   1.634
  294W        W 1391   4.588   6.991   0.788
  295W        W 1392   4.848   2.907   0.667
  296W        W 1393   6.939   4.095   0.989
  297W        W 1394   2.481   2.362   6.005
  298W        W 1395   6.224   0.691   6.822
  299W        W 1396   0.632   3.857   7.284
  300W        W 1397   7.141   6.937   4.678
  301W        W 1398   4.635   4.146   6.694
  302W        W 1399   2.712   4.367   2.746
  303W        W 1400   5.425   3.722   2.390
  304W        W 1401   6.697   4.696   3.271
  305W        W 1402   5.016   5.636   1.548
  306W        W 1403   7.176   0.692   0.412
  307W        W 1404   1.617   1.242   2.597
  308W        W 1405   2.148   5.449   2.572
  309W        W 1406   3.105   0.486   4.764
  310W        W 1407   7.241   7.263   5.065
  311W        W 1408   2.191   7.073   3.340
  312W        W 1409   6.899   1.528   7.660
  313W        W 1410   0.520   2.210   6.938
  314W        W 1411   2.932   0.801   0.370
  315W        W 1412   7.000   5.390   5.643
  316W        W 1413   2.837   5.883   7.389
  317W        W 1414   7.173   3.649   0.718
  318W        W 1415   6.816   7.096   0.521
  319W        W 1416   6.705   3.832   0.546
  320W        W 1417   6.985   6.398   1.029
  321W        W 1418   1.004   5.143   2.218
  322W        W 1419   5.003   2.040   3.247
  323W        W 1420   3.324   5.958   2.361
  324W        W 1421   6.530   3.909   6.745
  325W        W 1422   2.133   6.592   5.974
  326W        W 1423   0.997   2.101   5.539
  327W        W 1424   1.283   4.261   2.374
  328W        W 1425   2.328   1.500   4.662
  329W        W 1426   6.342   1.268   6.690
  330W        W 1427   1.301   6.551   2.309
  331W        W 1428   7.406   4.704   5.392
  332W        W 1429   6.076   0.833   5.340
  333W        W 1430   2.768   3.633   7.114
  334W        W 1431   7.273   3.416   1.170
  335W        W 1432   5.999   6.606   7.491
  336W        W 1433   0.098   2.832   0.606
  337W        W 1434   2.497   5.124   1.054
  338W        W 1435   5.570   2.933   1.837
  339W        W 1436   7.768   3.432   4.713
  340W        W 1437   4.981   5.828   7.675
  341W        W 1438   4.575   2.868   4.304
  342W        W 1439   0.994   4.818   1.317
  343W        W 1440   2.646   5.930   6.748
  344W        W 1441   6.496   1.454   1.899
  345W        W 1442   5.963   5.419   1.042
  346W        W 1443   5.321   1.660   3.240
  347W        W 1444   4.818   5.202   6.966
  348W        W 1445   4.323   2.836   0.552
  349W        W 1446   0.886   5.340   6.281
  350W        W 1447   4.573   1.429   2.257
  351W        W 1448   0.306   1.856   4.245
  352W        W 1449   4.214   5.143   5.601
  353W        W 1450   5.152   1.309   0.457
  354W        W 1451   2.805   0.133   5.663
  355W        W 1452   6.462   2.244   2.499
  356W        W 1453   2.413   5.702   5.113
  357W        W 1454   2.193   3.020   0.659
  358W        W 1455   3.073   3.541   4.860
  359W        W 1456   6.039   6.093   7.368
  360W        W 1457   7.456   5.787   1.422
  361W        W 1458   5.119   3.721   2.772
  362W        W 1459   7.500   3.732   7.005
  363W        W 1460   4.362   4.703   3.421
  364W        W 1461   4.862   0.087   1.302
  365W        W 1462   1.016   1.658   3.062
  366W        W 1463   6.397   4.930   5.059
  367W        W 1464   0.573   6.303   0.535
  368W        W 1465   1.921   5.198   1.019
  369W        W 1466   2.253   4.285   2.069
  370W        W 1467   0.523   0.084   2.524
  371W        W 1468   7.573   0.969   0.532
  372W        W 1469   5.668   7.368   6.679
  373W        W 1470   0.892   2.859   2.310
  374W        W 1471   1.603   4.785   3.774
  375W        W 1472   7.206   6.744   0.661
  376W        W 1473   6.265   3.953   2.164
  377W        W 1474   3.423   1.148   3.498
  378W        W 1475   0.241   3.307   1.316
  379W        W 1476   0.825   0.474   5.265
  380W        W 1477   5.192   6.883   7.365
  381W        W 1478   5.184   4.770   1.939
  382W        W 1479   1.362   4.615   3.381
  383W        W 1480   5.576   7.464   1.775
  384W        W 1481   1.752   2.802   3.190
  385W        W 1482   0.058   2.030   4.773
  386W        W 1483   2.681   4.176   7.386
  387W        W 1484   0.707   7.542   3.167
  388W        W 1485   1.168   3.771   4.365
  389W        W 1486   2.601   7.345   6.069
  390W        W 1487   3.601   2.142   5.778
  391W        W 1488   0.615   1.893   5.790
  392W        W 1489   3.021   6.917   3.273
  393W        W 1490   2.204   3.416   0.101
  394W        W 1491   7.823   1.835   5.082
  395W        W 1492   4.694   0.868   1.349
  396W        W 1493   3.953   1.633   4.995
  397W        W 1494   6.228   2.115   7.354
  398W        W 1495   2.339   0.609   0.742
  399W        W 1496   3.541   1.808   0.365
  400W        W 1497   6.492   5.083   5.554
  401W        W 1498   0.928   1.731   3.962
  402W        W 1499   7.648   1.659   2.228
  403W        W 1500   2.513   1.885   7.289
  404W        W 1501   2.496   1.095   3.080
  405W        W 1502   4.477   3.244   7.145
  406W        W 1503   2.804   5.000   7.134
  407W        W 1504   5.180   3.234   1.965
  408W        W 1505   0.566   6.664   5.754
  409W        W 1506   3.374   6.613   3.132
  410W        W 1507   7.344   7.811   6.781
  411W        W 1508   7.213   1.344   6.940
  412W        W 1509   0.737   2.109   1.248
  413W        W 1510   6.718   4.841   6.852
  414W        W 1511   1.687   4.864   5.992
  415W        W 1512   5.991   0.370   6.393
  416W        W 1513   5.310   2.779   5.362
  417W        W 1514   2.167   5.026   7.731
  418W        W 1515   6.254   6.507   4.976
  419W        W 1516   0.761   1.889   0.418
  420W        W 1517   2.568   3.468   6.353
  421W        W 1518   6.150   4.390   4.087
  422W        W 1519   4.450   6.418   4.240
  423W        W 1520   6.680   1.515   3.000
  424W        W 1521   0.909   0.784   7.552
  425W        W 1522   3.135   4.586   7.784
  426W        W 1523   2.707   0.257   1.550
  427W        W 1524   7.276   2.491   0.280
  428W        W 1525   1.401   0.343   7.024
  429W        W 1526   5.050   7.122   0.900
  430W        W 1527   3.212   4.240   6.956
  431W        W 1528   6.014   3.418   5.597
  432W        W 1529   5.090   3.496   3.901
  433W        W 1530   2.204   1.607   1.031
  434W        W 1531   5.933   7.313   7.178
  435W        W 1532   0.423   3.184   2.254
  436W        W 1533   5.206   1.158   3.101
  437W        W 1534   7.671   3.454   3.286
  438W        W 1535   0.360   0.848   7.618
  439W        W 1536   3.274   1.647   2.093
  440W        W 1537   1.492   2.380   7.774
  441W        W 1538   5.842   1.869   0.596
  442W        W 1539   6.665   6.398   5.403
  443W        W 1540   7.928   0.867   6.951
  444W        W 1541   6.904   5.757   2.450
  445W        W 1542   0.487   6.888   0.434
  446W        W 1543   2.757   4.564   4.506
  447W        W 1544   0.201   7.539   6.349
  448W        W 1545   4.673   2.041   7.892
  449W        W 1546   2.859   1.881   4.174
  450W        W 1547   0.198   1.316   1.688
  451W        W 1548   2.427   3.180   2.033
  452W        W 1549   6.265   7.347   0.304
  453W        W 1550   7.092   2.642   5.770
  454W        W 1551   2.646   2.891   3.764
  455W        W 1552   2.531   3.557   4.853
  456W        W 1553   6.769   2.803   5.426
  457W        W 1554   1.299   3.182   0.545
  458W        W 1555   1.273   1.200   2.197
  459W        W 1556   7.431   1.580   4.839
  460W        W 1557   7.412   3.771   5.062
  461W        W 1558   7.042   2.932   0.499
  462W        W 1559   1.247   5.733   2.433
  463W        W 1560   2.995   7.596   5.450
  464W        W 1561   4.314   4.547   4.889
  465W        W 1562   6.508   7.541   1.735
  466W        W 1563   6.934   7.511   5.920
  467W        W 1564   2.135   5.526   1.287
  468W        W 1565   0.639   4.149   1.266
  469W        W 1566   7.077   6.869   0.119
  470W        W 1567   2.219   2.691   5.617
  471W        W 1568   1.810   1.959   3.307
  472W        W 1569   2.555   5.326   7.457
  473W        W 1570   2.006   2.279   5.823
  474W        W 1571   6.534   2.133   3.736
  475W        W 1572   2.697   7.460   4.056
  476W        W 1573   4.633   0.642   4.197
  477W        W 1574   2.983   1.256   3.038
  478W        W 1575   0.177   6.841   5.469
  479W        W 1576   7.425   1.891   3.543
  480W        W 1577   3.346   3.366   2.062
  481W        W 1578   4.943   3.212   7.333
  482W        W 1579   2.905   0.493   5.326
  483W        W 1580   1.813   1.775   4.665
  484W        W 1581   1.215   4.687   0.844
  485W        W 1582   3.028   7.407   0.527
  486W        W 1583   7.582   0.005   3.042
  487W        W 1584   0.201   3.645   6.965
  488W        W 1585   7.277   4.794   2.733
  489W        W 1586   0.830   1.719   7.354
  490W        W 1587   4.353   3.959   0.011
  491W        W 1588   4.966   2.867   6.984
  492W        W 1589   6.613   7.421   6.380
  493W        W 1590   4.620   3.907   0.719
  494W        W 1591   4.987   7.461   7.894
  495W        W 1592   7.222   7.579   7.508
  496W        W 1593   7.792   6.749   0.286
  497W        W 1594   7.772   0.232   5.642
  498W        W 1595   5.982   5.966   5.055
  499W        W 1596   0.497   0.157   4.251
  500W        W 1597   6.420   7.919   0.320
  501W        W 1598   4.342   2.977   1.604
  502W        W 1599   2.628   3.594   2.729
  503W        W 1600   3.020   1.291   5.221
  504W        W 1601   6.209   0.931   1.592
  505W        W 1602   0.889   5.918   0.791
  506W        W 1603   4.184   0.803   1.556
  507W        W 1604   5.660   4.132   7.602
  508W        W 1605   4.110   1.383   5.752
  509W        W 1606   4.118   4.271   1.307
  510W        W 1607   4.773   7.483   0.258
  511W        W 1608   1.712   6.500   6.804
  512W        W 1609   7.238   4.283   6.320
  513W        W 1610   7.635   5.228   2.470
  514W        W 1611   0.324   3.610   2.813
  515W        W 1612   0.224   3.742   0.793
  516W        W 1613   1.908   6.078   7.028
  517W        W 1614   0.717   3.486   0.585
  518W        W 1615   6.343   2.126   3.278
  519W        W 1616   3.835   1.255   7.451
  520W        W 1617   3.187   0.885   5.582
  521W        W 1618   5.502   3.440   1.015
  522W        W 1619   0.033   4.036   6.689
  523W        W 1620   7.723   6.265   7.387
  524W        W 1621   5.805   4.808   1.212
  525W        W 1622   6.441   5.309   7.423
  526W        W 1623   5.144   5.357   7.685
  527W        W 1624   4.744   5.516   5.387
  528W        W 1625   0.035   2.034   2.958
  529W        W 1626   3.375   4.107   0.903
  530W        W 1627   0.318   4.358   1.668
  531W        W 1628   0.425   4.345   5.912
  532W        W 1629   1.437   0.553   6.083
  533W        W 1630   2.542   1.777   2.588
  534W        W 1631   7.378   5.867   1.885
  535W        W 1632   5.808   0.551   0.559
  536W        W 1633   2.582   7.435   4.585
  537W        W 1634   1.677   2.861   5.916
  538W        W 1635   2.080   0.539   4.640
  539W        W 1636   4.071   2.436   0.616
  540W        W 1637   5.158   5.228   6.585
  541W        W 1638   0.143   0.560   4.410
  542W        W 1639   4.606   5.967   5.119
  543W        W 1640   2.536   0.558   5.816
  544W        W 1641   7.413   4.681   5.948
  545W        W 1642   7.991   5.633   6.639
  546W        W 1643   3.832   7.376   0.280
  547W        W 1644   0.286   5.890   4.577
  548W        W 1645   2.289   0.991   6.095
  549W        W 1646   2.265   7.063   5.248
  550W        W 1647   7.324   0.298   1.252
  551W        W 1648   2.160   2.927   2.892
  552W        W 1649   1.774   5.224   7.423
  553W        W 1650   4.399   0.978   5.528
  554W        W 1651   4.993   5.267   2.821
  555W        W 1652   7.259   2.940   1.332
  556W        W 1653   2.877   6.251   5.587
  557W        W 1654   1.227   1.237   0.955
  558W        W 1655   3.396   7.434   1.537
  559W        W 1656   4.232   3.931   7.043
  560W        W 1657   1.236   7.565   4.667
  561W        W 1658   3.495   4.730   6.042
  562W        W 1659   5.740   1.246   1.262
  563W        W 1660   6.796   4.395   4.888
  564W        W 1661   3.604   3.499   6.074
  565W        W 1662   4.930   6.797   1.256
  566W        W 1663   2.289   3.106   4.016
  567W        W 1664   5.397   7.156   7.021
  568W        W 1665   1.186   5.085   5.902
  569W        W 1666   5.230   6.346   6.416
  570W        W 1667   7.176   0.904   7.736
  571W        W 1668   2.805   4.665   6.760
  572W        W 1669   6.100   1.214   7.252
  573W        W 1670   6.460   0.201   5.175
  574W        W 1671   4.819   3.146   4.692
  575W        W 1672   7.781   7.076   4.202
  576W        W 1673   5.101   1.691   1.163
  577W        W 1674   6.922   4.502   4.361
  578W        W 1675   2.800   6.112   3.806
  579W        W 1676   7.563   0.563   0.850
  580W        W 1677   6.503   3.116   0.416
  581W        W 1678   0.424   7.201   6.711
  582W        W 1679   0.152   2.032   6.016
  583W        W 1680   7.587   4.028   2.743
  584W        W 1681   2.291   0.858   7.014
  585W        W 1682   0.603   5.519   7.381
  586W        W 1683   5.652   1.070   7.518
  587W        W 1684   4.900   5.178   4.854
  588W        W 1685   3.738   3.949   6.893
  589W        W 1686   6.105   3.523   5.085
  590W        W 1687   5.814   6.463   4.070
  591W        W 1688   1.918   1.408   3.199
  592W        W 1689   7.535   3.451   6.572
  593W        W 1690   4.761   4.458   7.624
  594W        W 1691   5.476   5.506   3.062
  595W        W 1692   3.124   4.803   5.673
  596W        W 1693   7.743   2.535   6.986
  597W        W 1694   3.772   5.184   5.908
  598W        W 1695   0.700   2.625   7.709
  599W        W 1696   2.483   6.525   4.522
  600W        W 1697   5.663   7.312   0.318
  601W        W 1698   5.389   2.908   7.218
  602W        W 1699   6.666   1.431   7.086
  603W        W 1700   4.791   5.033   4.367
  604W        W 1701   7.727   7.693   5.756
  605W        W 1702   6.520   5.539   5.383
  606W        W 1703   3.053   0.148   6.574
  607W        W 1704   3.165   0.879   0.806
  608W        W 1705   2.648   2.429   4.900
  609W        W 1706   7.142   7.191   3.641
  610W        W 1707   5.643   4.973   1.712
  611W        W 1708   3.923   5.851   2.934
  612W        W 1709   1.047   0.730   0.842
  613W        W 1710   3.739   6.172   4.685
  614W        W 1711   7.646   0.601   5.030
  615W        W 1712   0.747   7.548   4.601
  616W        W 1713   7.994   6.359   3.127
  617W        W 1714   4.654   7.471   0.948
  618W        W 1715   3.264   6.732   4.230
  619W        W 1716   5.444   5.721   6.519
  620W        W 1717   0.677   1.078   1.695
  621W        W 1718   7.017   4.256   1.494
  622W        W 1719   6.891   6.336   5.858
  623W        W 1720   5.465   1.586   6.276
  624W        W 1721   1.614   5.297   3.790
  625W        W 1722   1.659   3.056   1.384
  626W        W 1723   1.408   3.908   7.214
  627W        W 1724   1.016   3.415   6.237
  628W        W 1725   5.187   5.137   2.376
  629W        W 1726   4.676   2.608   2.394
  630W        W 1727   5.945   7.734   0.261
  631W        W 1728   1.525   2.450   0.197
  632W        W 1729   0.843   5.491   6.891
  633W        W 1730   7.895   6.664   1.385
  634W        W 1731   6.962   5.885   4.657
  635W        W 1732   4.845   3.903   4.494
  636W        W 1733   3.044   4.869   6.206
  637W        W 1734   1.797   6.203   3.493
  638W        W 1735   4.333   6.850   4.869
  639W        W 1736   2.900   5.411   5.076
  640W        W 1737   3.065   2.670   2.662
  641W        W 1738   6.485   0.695   2.439
  642W        W 1739   2.286   5.863   6.341
  643W        W 1740   3.708   0.846   7.169
  644W        W 1741   5.315   1.012   2.156
  645W        W 1742   4.418   4.685   2.333
  646W        W 1743   5.465   5.844   3.535
  647W        W 1744   3.570   2.692   4.939
  648W        W 1745   3.117   3.245   0.875
  649W        W 1746   3.302   5.552   5.361
  650W        W 1747   3.398   6.302   2.719
  651W        W 1748   3.636   4.251   6.241
  652W        W 1749   1.587   1.163   3.531
  653W        W 1750   0.063   3.334   1.877
  654W        W 1751   4.492   2.315   5.164
  655W        W 1752   2.929   3.730   6.663
  656W        W 1753   6.545   0.630   1.750
  657W        W 1754   4.720   2.586   0.151
  658W        W 1755   6.602   4.315   3.583
  659W        W 1756   5.543   6.725   3.066
  660W        W 1757   4.428   4.893   7.861
  661W        W 1758   0.894   5.629   7.825
  662W        W 1759   1.349   4.504   5.750
  663W        W 1760   5.021   6.502   4.099
  664W        W 1761   5.809   4.553   3.736
  665W        W 1762   7.200   6.199   0.631
  666W        W 1763   7.508   3.429   0.331
  667W        W 1764   7.863   0.510   3.663
  668W        W 1765   3.006   4.287   2.349
  669W        W 1766   7.125   2.817   3.551
  670W        W 1767   6.192   5.055   6.704
  671W        W 1768   4.905   1.783   2.274
  672W        W 1769   2.920   7.448   6.800
  673W        W 1770   0.547   1.496   2.918
  674W        W 1771   0.045   5.409   0.230
  675W        W 1772   3.246   0.574   7.868
  676W        W 1773   0.915   3.151   0.918
  677W        W 1774   1.071   5.493   0.947
  678W        W 1775   0.202   1.289   7.218
  679W        W 1776   6.261   0.329   0.226
  680W        W 1777   7.595   7.058   4.752
  681W        W 1778   5.221   7.081   1.783
  682W        W 1779   4.346   7.524   2.685
  683W        W 1780   2.680   2.372   6.812
  684W        W 1781   0.272   4.236   0.905
  685W        W 1782   5.840   5.692   4.668
  686W        W 1783   2.766   1.303   5.679
  687W        W 1784   6.359   6.594   1.848
  688W        W 1785   5.430   2.222   2.987
  689W        W 1786   4.265   1.979   4.152
  690W        W 1787   0.352   0.725   0.326
  691W        W 1788   5.441   5.763   1.841
  692W        W 1789   0.531   2.365   5.632
  693W        W 1790   2.954   1.700   1.674
  694W        W 1791   7.621   3.237   5.727
  695W        W 1792   0.649   2.401   2.353
  696W        W 1793   5.750   2.488   7.144
  697W        W 1794   1.721   3.936   3.585
  698W        W 1795   4.090   4.384   7.175
  699W        W 1796   5.545   4.090   2.682
  700W        W 1797   5.913   7.713   4.093
  701W        W 1798   3.245   6.402   1.144
  702W        W 1799   3.932   3.889   7.439
  703W        W 1800   2.502   6.522   3.966
  704W        W 1801   4.040   7.897   1.758
  705W        W 1802   5.233   2.606   3.191
  706W        W 1803   4.869   1.991   7.449
  707W        W 1804   3.390   3.753   2.940
  708W        W 1805   0.812   1.401   2.087
  709W        W 1806   1.524   6.920   4.096
  710W        W 1807   1.421   1.412   3.028
  711W        W 1808   7.420   1.326   1.427
  712W        W 1809   2.017   4.018   0.446
  713W        W 1810   2.558   2.666   6.394
  714W        W 1811   4.214   0.131   6.769
  715W        W 1812   7.651   2.160   5.691
  716W        W 1813   7.147   2.379   4.286
  717W        W 1814   3.022   1.017   1.382
  718W        W 1815   6.438   3.904   5.094
  719W        W 1816   2.562   1.742   0.562
  720W        W 1817   7.000   6.917   1.133
  721W        W 1818   3.171   7.858   5.933
  722W        W 1819   5.918   1.346   4.481
  723W        W 1820   7.354   5.835   6.709
  724W        W 1821   4.700   5.783   3.570
  725W        W 1822   4.056   4.719   5.852
  726W        W 1823   5.083   0.796   4.373
  727W        W 1824   3.569   7.764   1.852
  728W        W 1825   3.311   0.291   3.292
  729W        W 1826   1.888   2.036   1.124
  730W        W 1827   3.141   5.918   4.320
  731W        W 1828   1.054   6.590   4.219
  732W        W 1829   5.900   4.482   7.822
  733W        W 1830   2.393   6.021   7.142
  734W        W 1831   3.662   1.541   5.473
  735W        W 1832   3.922   4.919   2.477
  736W        W 1833   3.203   4.382   3.852
  737W        W 1834   4.765   0.817   1.985
  738W        W 1835   0.138   4.991   3.804
  739W        W 1836   6.678   2.203   6.575
  740W        W 1837   7.080   0.317   2.566
  741W        W 1838   7.047   0.066   2.996
  742W        W 1839   1.420   6.824   7.049
  743W        W 1840   5.599   1.795   1.442
  744W        W 1841   1.079   1.219   7.341
  745W        W 1842   3.814   6.348   3.067
  746W        W 1843   0.638   6.022   7.278
  747W        W 1844   3.896   0.582   2.569
  748W        W 1845   7.838   7.938   6.760
  749W        W 1846   5.724   3.797   7.221
  750W        W 1847   4.748   0.991   5.906
  751W        W 1848   1.694   6.996   6.608
  752W        W 1849   6.550   6.219   6.919
  753W        W 1850   4.141   2.484   1.491
  754W        W 1851   4.366   4.879   1.892
  755W        W 1852   3.890   4.464   5.227
  756W        W 1853   4.322   4.220   2.198
  757W        W 1854   7.712   6.556   5.491
  758W        W 1855   6.681   0.257   1.311
  759W        W 1856   6.360   0.096   6.675
  760W        W 1857   3.641   2.035   4.803
  761W        W 1858   5.137   0.074   6.827
  762W        W 1859   1.201   2.145   0.449
  763W        W 1860   6.194   7.259   6.684
  764W        W 1861   3.286   6.929   2.196
  765W        W 1862   1.462   2.385   3.446
  766W        W 1863   6.538   2.591   5.035
  767W        W 1864   6.993   6.038   1.494
  768W        W 1865   6.291   2.003   5.622
  769W        W 1866   6.843   6.613   4.968
  770W        W 1867   1.628   5.686   7.034
  771W        W 1868   0.372   5.154   0.568
  772W        W 1869   3.695   6.274   7.428
  773W        W 1870   7.188   6.624   5.549
  774W        W 1871   3.745   5.473   2.203
  775W        W 1872   2.387   1.610   3.010
  776W        W 1873   2.750   7.132   5.512
  777W        W 1874   5.807   3.849   2.025
  778W        W 1875   4.042   6.809   2.948
  779W        W 1876   2.298   5.809   2.189
  780W        W 1877   1.396   7.287   3.533
  781W        W 1878   5.793   4.260   3.313
  782W        W 1879   6.593   6.010   1.145
  783W        W 1880   5.584   4.019   1.010
  784W        W 1881   7.298   7.951   2.552
  785W        W 1882   7.551   2.447   6.509
  786W        W 1883   4.137   1.128   2.129
  787W        W 1884   3.710   2.616   7.064
  788W        W 1885   7.193   3.845   6.617
  789W        W 1886   4.900   1.727   0.701
  790W        W 1887   5.959   1.680   4.854
  791W        W 1888   3.907   1.399   6.185
  792W        W 1889   2.220   5.611   5.922
  793W        W 1890   5.565   4.482   1.544
  794W        W 1891   0.017   2.878   5.815
  795W        W 1892   5.654   3.685   5.857
  796W        W 1893   2.782   0.548   7.621
  797W        W 1894   0.824   2.973   4.029
  798W        W 1895   3.367   0.318   5.128
  799W        W 1896   2.473   6.320   6.284
  800W        W 1897   2.635   3.243   6.778
  801W        W 1898   2.664   7.910   6.859
  802W        W 1899   7.209   0.112   5.633
  803W        W 1900   5.711   6.140   6.348
  804W        W 1901   6.674   2.198   4.234
  805W        W 1902   1.766   4.509   2.203
  806W        W 1903   3.532   5.255   7.353
  807W        W 1904   4.746   7.648   6.686
  808W        W 1905   1.311   2.704   1.901
  809W        W 1906   5.397   2.054   0.944
  810W        W 1907   3.694   0.903   0.452
  811W        W 1908   7.262   3.375   4.721
  812W        W 1909   4.021   3.014   6.903
  813W        W 1910   0.889   0.470   6.247
  814W        W 1911   1.938   1.209   7.165
  815W        W 1912   3.078   3.706   0.687
  816W        W 1913   5.653   2.313   7.951
  817W        W 1914   1.304   4.926   7.471
  818W        W 1915   4.825   4.081   6.240
  819W        W 1916   5.556   0.551   6.714
  820W        W 1917   7.038   6.970   1.620
  821W        W 1918   4.001   1.172   5.234
  822W        W 1919   0.496   5.291   6.603
  823W        W 1920   3.944   7.955   0.814
  824W        W 1921   2.529   7.416   0.197
  825W        W 1922   0.703   1.015   5.857
  826W        W 1923   7.105   6.582   2.538
  827W        W 1924   3.681   1.747   6.533
  828W        W 1925   5.293   4.796   6.354
  829W        W 1926   0.915   3.159   7.669
  830W        W 1927   1.332   0.205   1.773
  831W        W 1928   5.819   7.572   7.811
  832W        W 1929   4.667   0.544   5.546
  833W        W 1930   5.235   5.420   5.229
  834W        W 1931   3.351   4.753   2.063
  835W        W 1932   5.804   2.667   1.240
  836W        W 1933   5.441   2.297   0.320
  837W        W 1934   4.362   1.525   5.319
  838W        W 1935   0.001   1.151   2.642
  839W        W 1936   2.723   7.498   7.370
  840W        W 1937   1.157   0.291   0.019
  841W        W 1938   0.068   3.400   6.557
  842W        W 1939   2.906   7.091   6.429
  843W        W 1940   3.296   3.517   5.610
  844W        W 1941   4.511   5.557   4.874
  845W        W 1942   5.860   4.474   0.835
  846W        W 1943   3.140   5.477   4.628
  847W        W 1944   6.893   6.693   6.422
  848W        W 1945   4.391   2.575   3.360
  849W        W 1946   2.871   6.934   7.424
  850W        W 1947   0.478   0.095   5.483
  851W        W 1948   3.712   2.699   1.305
  852W        W 1949   1.796   1.134   5.320
  853W        W 1950   4.092   2.239   3.547
  854W        W 1951   1.500   0.397   0.922
  855W        W 1952   6.763   3.246   7.585
  856W        W 1953   4.943   4.920   7.811
  857W        W 1954   2.943   6.998   3.799
  858W        W 1955   6.608   1.653   0.232
  859W        W 1956   0.515   7.604   2.725
  860W        W 1957   6.428   6.822   5.303
  861W        W 1958   5.360   4.774   6.942
  862W        W 1959   3.958   6.118   6.932
  863W        W 1960   4.563   5.871   1.652
  864W        W 1961   0.526   5.648   5.930
  865W        W 1962   6.709   2.108   2.927
  866W        W 1963   1.515   2.327   6.240
  867W        W 1964   4.465   5.572   7.382
  868W        W 1965   6.941   6.530   3.030
  869W        W 1966   5.805   4.177   6.037
  870W        W 1967   7.004   1.155   1.234
  871W        W 1968   0.388   3.811   5.758
  872W        W 1969   4.005   3.468   7.190
  873W        W 1970   0.271   4.677   5.534
  874W        W 1971   4.491   2.303   7.446
  875W        W 1972   4.296   4.753   2.859
  876W        W 1973   2.726   5.544   0.325
  877W        W 1974   3.337   2.878   3.083
  878W        W 1975   6.898   1.536   4.724
  879W        W 1976   4.864   5.840   1.046
  880W        W 1977   6.844   3.175   3.995
  881W        W 1978   0.518   3.301   1.767
  882W        W 1979   5.552   1.919   4.293
  883W        W 1980   6.644   6.410   3.846
  884W        W 1981   5.767   1.207   5.472
  885W        W 1982   7.590   5.210   7.218
  886W        W 1983   3.918   3.500   2.945
  887W        W 1984   6.334   2.871   1.214
  888W        W 1985   7.759   4.400   7.436
  889W        W 1986   1.164   0.380   1.302
  890W        W 1987   7.745   7.456   3.841
  891W        W 1988   1.428   5.400   5.470
  892W        W 1989   7.012   3.763   1.423
  893W        W 1990   2.536   2.445   3.485
  894W        W 1991   1.085   2.146   3.233
  895W        W 1992   2.839   4.805   5.160
  896W        W 1993   6.972   6.161   3.542
  897W        W 1994   0.454   3.077   0.898
  898W        W 1995   4.396   0.151   0.998
  899W        W 1996   4.030   5.915   7.447
  900W        W 1997   5.179   7.568   1.086
  901W        W 1998   3.198   1.616   3.374
  902W        W 1999   7.319   5.022   0.938
  903W        W 2000   6.514   6.061   2.216
  904W        W 2001   3.070   4.476   4.871
  905W        W 2002   0.221   2.667   1.105
  906W        W 2003   5.527   2.920   0.879
  907W        W 2004   7.000   1.626   3.893
  908W        W 2005   0.082   5.279   5.631
  909W        W 2006   6.018   0.832   1.040
  910W        W 2007   3.547   2.545   2.758
  911W        W 2008   1.077   0.354   4.798
  912W        W 2009   5.689   2.920   2.350
  913W        W 2010   6.357   6.420   4.224
  914W        W 2011   2.504   2.739   0.926
  915W        W 2012   2.973   3.959   2.779
  916W        W 2013   7.246   1.188   5.668
  917W        W 2014   5.555   0.154   7.125
  918W        W 2015   0.784   5.443   0.582
  919W        W 2016   4.456   7.403   5.796
  920W        W 2017   3.083   2.675   4.172
  921W        W 2018   2.269   6.175   1.319
  922W        W 2019   1.819   5.613   0.564
  923W        W 2020   0.003   4.041   0.383
  924W        W 2021   2.220   4.757   6.135
  925W        W 2022   6.730   3.597   1.028
  926W        W 2023   4.236   3.011   7.500
  927W        W 2024   1.180   6.272   4.569
  928W        W 2025   3.501   0.218   0.224
  929W        W 2026   3.316   5.053   5.264
  930W        W 2027   7.113   1.939   1.921
  931W        W 2028   6.751   7.606   6.813
  932W        W 2029   3.062   5.826   2.898
  933W        W 2030   1.908   5.662   4.953
  934W        W 2031   4.602   6.999   0.081
  935W        W 2032   4.303   6.390   2.982
  936W        W 2033   0.941   6.014   0.318
  937W        W 2034   6.389   7.684   2.789
  938W        W 2035   0.843   4.714   3.298
  939W        W 2036   1.900   0.251   4.031
  940W        W 2037   5.108   6.126   4.576
  941W        W 2038   5.713   1.745   1.961
  942W        W 2039   3.530   7.966   7.123
  943W        W 2040   6.268   4.709   2.901
  944W        W 2041   7.776   5.874   7.021
  945W        W 2042   6.335   5.614   1.370
  946W        W 2043   0.195   1.231   0.158
  947W        W 2044   0.354   7.844   6.757
  948W        W 2045   7.146   0.763   5.058
  949W        W 2046   2.580   4.977   6.336
  950W        W 2047   1.569   5.996   5.173
  951W        W 2048   3.142   6.756   5.561
  952W        W 2049   1.693   3.645   5.545
  953W        W 2050   1.664   3.058   4.620
  954W        W 2051   2.044   4.616   6.907
  955W        W 2052   3.505   2.500   0.225
  956W        W 2053   5.833   5.746   1.482
  957W        W 2054   7.628   3.244   1.543
  958W        W 2055   5.518   2.090   3.465
  959W        W 2056   2.215   3.016   6.558
  960W        W 2057   6.436   0.366   3.845
  961W        W 2058   7.726   2.999   7.922
  962W        W 2059   6.981   4.385   5.350
  963W        W 2060   1.697   7.012   2.333
  964W        W 2061   2.470   5.045   6.798
  965W        W 2062   2.699   4.150   4.825
  966W        W 2063   0.296   1.363   4.181
  967W        W 2064   0.897   3.350   1.464
  968W        W 2065   3.471   5.128   2.408
  969W        W 2066   4.354   7.543   3.313
  970W        W 2067   7.034   5.787   3.834
  971W        W 2068   5.145   6.054   6.881
  972W        W 2069   3.004   0.352   0.136
  973W        W 2070   5.241   3.473   4.395
  974W        W 2071   4.364   0.457   7.512
  975W        W 2072   0.452   4.205   7.641
  976W        W 2073   5.168   0.548   2.339
  977W        W 2074   1.032   4.046   6.922
  978W        W 2075   4.476   0.410   1.428
  979W        W 2076   5.465   5.845   0.242
  980W        W 2077   3.341   5.214   1.690
  981W        W 2078   4.562   1.263   0.791
  982W        W 2079   1.465   6.290   7.881
  983W        W 2080   2.826   6.337   7.059
  984W        W 2081   0.909   2.548   5.958
  985W        W 2082   2.804   7.722   6.385
  986W        W 2083   1.821   0.355   0.484
  987W        W 2084   0.775   7.207   6.385
  988W        W 2085   1.403   1.589   1.921
  989W        W 2086   1.342   1.666   2.598
  990W        W 2087   2.191   2.901   7.545
  991W        W 2088   6.060   1.427   2.206
  992W        W 2089   5.338   1.827   0.456
  993W        W 2090   2.874   4.892   1.459
  994W        W 2091   4.969   4.629   2.548
  995W        W 2092   5.149   6.670   6.909
  996W        W 2093   6.085   1.512   6.300
  997W        W 2094   7.465   2.577   3.265
  998W        W 2095   6.087   1.336   3.709
  999W        W 2096   1.638   2.544   6.727
 1000W        W 2097   6.067   3.769   3.175
 1001W        W 2098   0.482   1.379   5.674
 1002W        W 2099   3.938   1.744   6.996
 1003W        W 2100   0.524   3.550   3.870
 1004W        W 2101   0.786   3.743   2.892
 1005W        W 2102   1.681   4.256   4.748
 1006W        W 2103   0.938   1.418   6.009
 1007W        W 2104   4.939   7.991   5.248
 1008W        W 2105   1.130   4.601   0.022
 1009W        W 2106   4.667   0.450   5.005
 1010W        W 2107   0.559   1.736   5.308
 1011W        W 2108   1.912   7.623   0.138
 1012W        W 2109   5.143   1.691   1.760
 1013W        W 2110   6.608   3.807   1.743
 1014W        W 2111   1.248   6.889   3.215
 1015W        W 2112   0.386   0.180   0.625
 1016W        W 2113   7.818   0.030   0.051
 1017W        W 2114   1.154   2.878   1.361
 1018W        W 2115   0.217   5.175   1.127
 1019W        W 2116   2.460   5.193   5.213
 1020W        W 2117   5.998   1.762   4.130
 1021W        W 2118   1.353   3.223   6.577
 1022W        W 2119   2.632   3.609   0.299
 1023W        W 2120   6.247   1.885   2.814
 1024W        W 2121   0.016   0.103   4.674
 1025W        W 2122   0.791   3.735   5.499
 1026W        W 2123   6.061   1.630   1.049
 1027W        W 2124   4.359   1.204   1.277
 1028W        W 2125   2.201   1.277   5.682
 1029W        W 2126   0.007   7.473   7.485
 1030W        W 2127   6.980   3.724   5.751
 1031W        W 2128   7.267   0.286   3.432
 1032W        W 2129   6.712   4.690   7.639
 1033W        W 2130   1.447   1.939   2.961
 1034W        W 2131   3.201   5.503   0.365
 1035W        W 2132   3.084   1.142   1.986
 1036W        W 2133   5.634   6.317   5.254
 1037W        W 2134   0.985   5.964   3.333
 1038W        W 2135   6.265   4.431   5.015
 1039W        W 2136   6.228   7.698   3.540
 1040W        W 2137   2.476   0.913   7.524
 1041W        W 2138   6.121   3.427   7.186
 1042W        W 2139   4.966   3.303   3.037
 1043W        W 2140   7.453   2.320   5.309
 1044W        W 2141   7.640   7.552   7.172
 1045W        W 2142   0.618   6.358   1.648
 1046W        W 2143   5.950   2.835   4.406
 1047W        W 2144   3.496   0.941   7.629
 1048W        W 2145   3.276   2.798   1.962
 1049W        W 2146   6.605   4.633   3.981
 1050W        W 2147   2.097   5.571   7.236
 1051W        W 2148   3.676   6.414   3.541
 1052W        W 2149   0.629   1.559   1.554
 1053W        W 2150   5.639   1.258   2.512
 1054W        W 2151   6.580   2.519   7.484
 1055W        W 2152   3.073   6.453   2.278
 1056W        W 2153   1.672   7.002   0.107
 1057W        W 2154   4.136   5.789   0.177
 1058W        W 2155   6.582   2.142   0.206
 1059W        W 2156   3.323   6.757   7.436
 1060W        W 2157   7.386   2.328   6.003
 1061W        W 2158   3.152   1.405   6.034
 1062W        W 2159   4.753   6.501   4.682
 1063W        W 2160   7.787   1.222   1.973
 1064W        W 2161   6.495   5.484   0.012
 1065W        W 2162   0.973   2.798   0.005
 1066W        W 2163   2.719   3.061   6.067
 1067W        W 2164   3.989   1.950   5.393
 1068W        W 2165   4.207   2.560   7.067
 1069W        W 2166   3.157   2.765   4.711
 1070W        W 2167   6.256   1.267   4.194
 1071W        W 2168   3.739   5.514   1.710
 1072W        W 2169   3.727   2.511   2.244
 1073W        W 2170   2.640   2.948   4.716
 1074W        W 2171   3.330   4.647   6.497
 1075W        W 2172   2.232   2.089   3.938
 1076W        W 2173   7.015   5.663   5.231
 1077W        W 2174   3.494   5.968   3.092
 1078W        W 2175   7.078   6.166   5.351
 1079W        W 2176   6.122   1.669   0.272
 1080W        W 2177   0.562   6.696   4.224
 1081W        W 2178   4.618   4.853   5.774
 1082W        W 2179   5.446   0.715   3.238
 1083W        W 2180   1.736   7.025   0.934
 1084W        W 2181   4.487   5.108   6.605
 1085W        W 2182   3.494   1.117   5.266
 1086W        W 2183   6.668   2.283   5.422
 1087W        W 2184   7.317   2.931   5.472
 1088W        W 2185   3.832   3.164   3.826
 1089W        W 2186   5.900   4.294   2.348
 1090W        W 2187   1.061   2.166   6.440
 1091W        W 2188   1.456   6.088   6.783
 1092W        W 2189   0.721   5.777   4.064
 1093W        W 2190   2.224   4.029   1.619
 1094W        W 2191   4.093   7.270   4.077
 1095W        W 2192   4.486   1.512   3.592
 1096W        W 2193   6.821   2.684   4.519
 1097W        W 2194   7.591   1.988   3.057
 1098W        W 2195   4.662   3.662   5.389
 1099W        W 2196   3.102   2.998   5.602
 1100W        W 2197   2.564   0.491   4.434
 1101W        W 2198   2.932   6.778   4.683
 1102W        W 2199   0.834   4.074   5.082
 1103W        W 2200   0.487   1.568   6.136
 1104W        W 2201   1.649   2.257   0.717
 1105W        W 2202   3.816   3.033   2.810
 1106W        W 2203   7.677   5.164   1.867
 1107W        W 2204   3.674   6.573   5.610
 1108W        W 2205   6.041   4.914   7.650
 1109W        W 2206   1.498   1.382   4.905
 1110W        W 2207   1.079   0.800   4.328
 1111W        W 2208   6.991   5.747   0.853
 1112W        W 2209   3.953   0.469   0.623
 1113W        W 2210   7.739   5.277   1.321
 1114W        W 2211   5.560   2.026   4.787
 1115W        W 2212   5.736   6.995   6.161
 1116W        W 2213   4.503   2.133   5.680
 1117W        W 2214   0.339   7.377   1.948
 1118W        W 2215   0.921   6.228   2.177
 1119W        W 2216   1.817   7.156   7.400
 1120W        W 2217   6.086   5.191   1.483
 1121W        W 2218   4.388   0.124   0.498
 1122W        W 2219   6.891   5.013   7.314
 1123W        W 2220   4.201   3.828   2.580
 1124W        W 2221   6.918   4.515   6.020
 1125W        W 2222   6.321   3.066   5.216
 1126W        W 2223   7.212   6.156   2.290
 1127W        W 2224   6.741   2.980   6.628
 1128W        W 2225   5.777   5.716   7.713
 1129W        W 2226   1.153   2.669   0.473
 1130W        W 2227   1.910   7.212   0.497
 1131W        W 2228   2.532   6.671   0.820
 1132W        W 2229   4.139   7.036   1.675
 1133W        W 2230   6.230   5.550   1.949
 1134W        W 2231   1.666   2.182   2.557
 1135W        W 2232   2.492   6.273   2.169
 1136W        W 2233   2.663   7.517   0.802
 1137W        W 2234   3.737   2.660   6.034
 1138W        W 2235   6.420   2.814   4.139
 1139W        W 2236   1.117   7.647   6.069
 1140W        W 2237   6.219   5.873   6.812
 1141W        W 2238   2.025   3.961   7.673
 1142W        W 2239   5.243   3.528   3.408
 1143W        W 2240   3.781   0.367   1.725
 1144W        W 2241   4.343   4.692   5.384
 1145W        W 2242   7.508   0.166   2.258
 1146W        W 2243   1.347   6.122   2.686
 1147W        W 2244   2.514   3.844   0.708
 1148W        W 2245   6.884   0.578   7.417
 1149W        W 2246   2.943   0.783   2.344
 1150W        W 2247   4.079   6.023   4.351
 1151W        W 2248   4.425   1.954   7.083
 1152W        W 2249   0.232   6.549   0.771
 1153W        W 2250   0.591   5.175   3.517
 1154W        W 2251   4.290   5.304   1.647
 1155W        W 2252   5.587   2.360   1.548
 1156W        W 2253   3.663   0.579   3.519
 1157W        W 2254   1.800   6.958   4.553
 1158W        W 2255   6.351   1.034   2.079
 1159W        W 2256   0.347   5.778   5.098
 1160W        W 2257   4.602   2.448   0.681
 1161W        W 2258   2.342   0.988   4.635
 1162W        W 2259   4.649   1.885   4.478
 1163W        W 2260   6.861   1.993   2.479
 1164W        W 2261   6.455   5.133   2.675
 1165W        W 2262   5.481   0.448   7.577
 1166W        W 2263   4.876   1.732   6.991
 1167W        W 2264   0.850   0.708   2.890
 1168W        W 2265   0.172   5.419   6.260
 1169W        W 2266   1.607   3.627   7.575
 1170W        W 2267   2.023   4.775   4.566
 1171W        W 2268   3.927   1.219   1.525
 1172W        W 2269   5.914   2.344   3.234
 1173W        W 2270   1.936   7.458   1.801
 1174W        W 2271   2.191   5.884   0.891
 1175W        W 2272   0.403   0.677   2.529
 1176W        W 2273   6.651   4.122   5.875
 1177W        W 2274   3.650   1.181   5.817
 1178W        W 2275   6.839   0.103   0.252
 1179W        W 2276   3.229   2.330   2.286
 1180W        W 2277   1.304   2.260   7.257
 1181W        W 2278   0.355   6.905   2.535
 1182W        W 2279   6.057   2.553   2.331
 1183W        W 2280   6.922   4.117   1.982
 1184W        W 2281   1.998   4.181   3.126
 1185W        W 2282   6.060   5.321   2.393
 1186W        W 2283   3.362   7.821   7.687
 1187W        W 2284   3.696   3.430   6.748
 1188W        W 2285   6.034   3.740   0.950
 1189W        W 2286   3.315   4.899   2.817
 1190W        W 2287   5.217   4.981   5.881
 1191W        W 2288   0.594   0.090   6.022
 1192W        W 2289   5.230   5.305   1.880
 1193W        W 2290   3.032   1.755   2.519
 1194W        W 2291   4.184   5.626   5.296
 1195W        W 2292   2.294   6.490   1.731
 1196W        W 2293   5.754   4.647   7.351
 1197W        W 2294   4.997   6.915   4.465
 1198W        W 2295   3.596   2.501   0.732
 1199W        W 2296   0.936   4.322   6.089
 1200W        W 2297   0.833   7.622   6.778
 1201W        W 2298   4.062   5.318   4.870
 1202W        W 2299   2.040   0.260   5.024
 1203W        W 2300   3.889   6.723   7.542
 1204W        W 2301   1.014   0.208   4.188
 1205W        W 2302   0.862   6.538   0.251
 1206W        W 2303   5.894   7.172   3.957
 1207W        W 2304   1.124   3.015   2.735
 1208W        W 2305   0.300   4.453   6.463
 1209W        W 2306   3.539   4.136   4.956
 1210W        W 2307   1.384   3.156   1.782
 1211W        W 2308   3.578   1.992   7.916
 1212W        W 2309   0.285   5.537   3.614
 1213W        W 2310   0.325   0.641   1.620
 1214W        W 2311   1.853   7.749   2.223
 1215W        W 2312   5.461   4.541   2.447
 1216W        W 2313   1.550   0.760   5.615
 1217W        W 2314   3.356   7.307   0.143
 1218W        W 2315   5.951   7.552   2.617
 1219W        W 2316   0.764   5.254   4.025
 1220W        W 2317   7.025   4.993   6.147
 1221W        W 2318   2.686   1.844   5.857
 1222W        W 2319   4.635   5.394   4.002
 1223W        W 2320   6.591   2.008   1.994
 1224W        W 2321   6.963   0.777   3.486
 1225W        W 2322   6.482   3.851   2.716
 1226W        W 2323   5.027   1.383   6.502
 1227W        W 2324   3.985   7.425   0.898
 1228W        W 2325   5.171   7.381   2.880
 1229W        W 2326   0.061   1.487   5.192
 1230W        W 2327   4.114   0.242   2.343
 1231W        W 2328   4.686   0.030   7.445
 1232W        W 2329   2.811   2.637   5.717
 1233W        W 2330   5.301   0.539   0.683
 1234W        W 2331   3.173   1.837   7.517
 1235W        W 2332   0.429   5.027   5.229
 1236W        W 2333   7.601   7.132   5.439
 1237W        W 2334   1.914   4.956   0.181
 1238W        W 2335   5.814   0.605   7.206
 1239W        W 2336   2.414   3.338   3.550
 1240W        W 2337   5.515   3.154   0.293
 1241W        W 2338   7.072   0.464   5.924
 1242W        W 2339   6.119   4.913   3.718
 1243W        W 2340   6.069   3.507   6.110
 1244W        W 2341   7.708   1.714   7.231
 1245W        W 2342   7.738   1.006   6.227
 1246W        W 2343   3.882   7.454   1.443
 1247W        W 2344   7.136   7.857   5.127
 1248W        W 2345   4.823   2.843   3.268
 1249W        W 2346   1.508   2.550   1.237
 1250W        W 2347   7.671   4.616   1.903
 1251W        W 2348   4.984   0.197   5.627
 1252W        W 2349   2.006   2.364   7.588
 1253W        W 2350   1.266   3.859   5.422
 1254W        W 2351   4.074   1.852   1.220
 1255W        W 2352   2.767   6.856   2.116
 1256W        W 2353   2.694   1.833   6.786
 1257W        W 2354   1.776   3.968   1.882
 1258W        W 2355   1.433   6.839   5.911
 1259W        W 2356   0.937   6.741   7.292
 1260W        W 2357   3.873   2.918   0.695
 1261W        W 2358   4.633   1.684   6.480
 1262W        W 2359   3.132   5.419   7.093
 1263W        W 2360   5.136   5.654   2.250
 1264W        W 2361   2.224   1.472   2.370
 1265W        W 2362   3.789   6.089   2.538
 1266W        W 2363   2.176   6.495   3.556
 1267W        W 2364   3.637   6.393   4.251
 1268W        W 2365   2.105   6.729   6.482
 1269W        W 2366   0.188   7.660   5.751
 1270W        W 2367   6.312   6.895   0.582
 1271W        W 2368   6.740   4.741   2.733
 1272W        W 2369   5.952   6.594   1.539
 1273W        W 2370   1.833   4.741   7.357
 1274W        W 2371   6.362   5.429   3.533
 1275W        W 2372   2.922   5.931   5.199
 1276W        W 2373   1.617   6.714   2.744
 1277W        W 2374   5.128   4.140   2.311
 1278W        W 2375   4.899   1.989   5.242
 1279W        W 2376   6.758   2.202   4.719
 1280W        W 2377   5.579   3.161   7.796
 1281W        W 2378   4.543   5.476   0.451
 1282W        W 2379   1.112   3.647   0.840
 1283W        W 2380   4.908   4.412   5.364
 1284W        W 2381   7.587   5.823   0.334
 1285W        W 2382   3.714   2.040   1.465
 1286W        W 2383   7.237   5.494   2.855
 1287W        W 2384   3.796   6.571   6.955
 1288W        W 2385   1.778   6.030   1.271
 1289W        W 2386   7.591   2.620   1.561
 1290W        W 2387   1.116   5.761   4.478
 1291W        W 2388   5.633   5.043   6.633
 1292W        W 2389   3.902   6.224   5.291
 1293W        W 2390   7.548   7.130   7.445
 1294W        W 2391   7.313   4.817   7.484
 1295W        W 2392   7.388   6.661   7.393
 1296W        W 2393   2.617   2.730   5.294
 1297W        W 2394   1.082   5.121   3.580
 1298W        W 2395   6.769   6.635   7.704
 1299W        W 2396   0.164   6.131   6.648
 1300W        W 2397   1.351   0.689   0.338
 1301W        W 2398   5.822   4.122   0.417
 1302W        W 2399   3.554   3.598   7.563
 1303W        W 2400   0.559   3.992   6.820
 1304W        W 2401   2.800   4.596   3.966
 1305W        W 2402   4.534   1.931   3.184
 1306W        W 2403   1.318   0.987   7.823
 1307W        W 2404   5.336   6.642   0.219
 1308W        W 2405   5.751   4.630   2.029
 1309W        W 2406   2.358   2.337   7.234
 1310W        W 2407   3.398   6.171   5.759
 1311W        W 2408   5.394   7.332   3.924
 1312W        W 2409   5.947   3.208   1.205
 1313W        W 2410   7.018   4.293   7.774
 1314W        W 2411   6.251   4.531   2.084
 1315W        W 2412   5.677   0.823   1.485
 1316W        W 2413   0.181   0.313   7.472
 1317W        W 2414   4.046   2.412   5.076
 1318W        W 2415   7.788   3.530   1.096
 1319W        W 2416   0.514   7.411   3.602
 1320W        W 2417   1.272   7.091   6.285
 1321W        W 2418   6.957   3.770   7.577
 1322W        W 2419   4.540   2.522   6.452
 1323W        W 2420   3.530   0.381   6.928
 1324W        W 2421   7.941   6.739   7.309
 1325W        W 2422   5.642   1.206   5.954
 1326W        W 2423   3.708   0.045   6.418
 1327W        W 2424   5.034   1.272   4.762
 1328W        W 2425   0.590   4.329   2.097
 1329W        W 2426   1.725   4.283   6.180
 1330W        W 2427   4.089   2.308   3.037
 1331W        W 2428   3.429   0.065   4.510
 1332W        W 2429   6.949   0.172   3.822
 1333W        W 2430   1.038   3.576   7.433
 1334W        W 2431   2.652   5.645   1.216
 1335W        W 2432   6.126   6.337   3.747
 1336W        W 2433   2.175   1.295   1.874
 1337W        W 2434   1.999   3.934   4.185
 1338W        W 2435   0.093   1.727   6.402
 1339W        W 2436   3.957   7.669   5.072
 1340W        W 2437   1.754   2.981   6.474
 1341W        W 2438   6.848   5.103   3.094
 1342W        W 2439   1.685   1.293   0.421
 1343W        W 2440   3.094   5.313   2.624
 1344W        W 2441   7.130   4.711   6.527
 1345W        W 2442   1.963   6.059   5.524
 1346W        W 2443   0.439   1.282   2.433
 1347W        W 2444   0.256   3.930   1.979
 1348W        W 2445   0.659   7.191   4.113
 1349W        W 2446   6.040   4.928   4.276
 1350W        W 2447   7.192   2.343   1.678
 1351W        W 2448   0.855   0.673   0.025
 1352W        W 2449   5.578   0.261   5.410
 1353W        W 2450   2.568   4.130   3.144
 1354W        W 2451   6.233   7.846   2.339
 1355W        W 2452   3.342   0.838   6.064
 1356W        W 2453   5.847   3.300   0.705
 1357W        W 2454   3.880   1.009   3.305
 1358W        W 2455   1.204   1.112   5.672
 1359W        W 2456   4.636   3.366   0.664
 1360W        W 2457   1.757   5.758   2.386
 1361W        W 2458   4.545   0.159   7.952
 1362W        W 2459   2.785   0.380   0.604
 1363W        W 2460   7.453   7.326   6.059
 1364W        W 2461   4.467   7.370   2.231
 1365W        W 2462   4.989   5.452   0.756
 1366W        W 2463   4.415   1.467   7.041
 1367W        W 2464   7.622   2.966   7.407
 1368W        W 2465   0.696   0.010   4.939
 1369W        W 2466   5.107   6.191   5.599
 1370W        W 2467   3.922   7.605   7.838
 1371W        W 2468   2.765   6.116   0.203
 1372W        W 2469   6.542   2.731   2.102
 1373W        W 2470   5.764   6.814   0.460
 1374W        W 2471   0.607   5.107   5.786
 1375W        W 2472   4.776   6.357   6.772
 1376W        W 2473   5.685   5.510   5.672
 1377W        W 2474   7.032   1.800   7.258
 1378W        W 2475   1.287   5.443   7.476
 1379W        W 2476   5.107   0.975   1.586
 1380W        W 2477   2.976   2.602   0.038
 1381W        W 2478   6.839   7.828   2.078
 1382W        W 2479   7.414   3.625   6.082
 1383W        W 2480   7.444   6.258   6.994
 1384W        W 2481   0.981   1.980   6.889
 1385W        W 2482   1.698   6.040   0.745
 1386W        W 2483   4.291   7.260   5.202
 1387W        W 2484   1.571   0.159   3.661
 1388W        W 2485   2.094   1.166   2.820
 1389W        W 2486   4.369   0.714   2.394
 1390W        W 2487   1.978   2.923   3.614
 1391W        W 2488   4.646   5.944   7.121
 1392W        W 2489   2.184   7.558   7.565
 1393W        W 2490   7.515   7.059   1.667
 1394W        W 2491   6.322   5.740   3.160
 1395W        W 2492   1.489   3.457   3.598
 1396W        W 2493   7.830   0.337   1.667
 1397W        W 2494   4.464   7.476   4.318
 1398W        W 2495   7.209   1.608   1.007
 1399W        W 2496   7.819   2.425   0.823
 1400W        W 2497   7.684   3.770   1.542
 1401W        W 2498   1.791   1.401   2.178
 1402W        W 2499   4.021   1.985   0.088
 1403W        W 2500   4.175   5.704   2.109
 1404W        W 2501   3.777   5.363   5.362
 1405W        W 2502   0.808   4.842   0.512
 1406W        W 2503   0.557   0.767   0.837
 1407W        W 2504   7.396   2.144   2.285
 1408W        W 2505   2.719   4.465   6.255
 1409W        W 2506   3.286   1.367   7.418
 1410W        W 2507   6.292   1.655   3.345
 1411W        W 2508   5.061   3.422   7.793
 1412W        W 2509   5.746   0.169   2.180
 1413W        W 2510   0.618   1.067   6.389
 1414W        W 2511   6.417   4.384   7.015
 1415W        W 2512   3.487   2.871   3.580
 1416W        W 2513   3.098   0.309   1.107
 1417W        W 2514   5.510   5.288   6.214
 1418W        W 2515   0.645   6.649   2.890
 1419W        W 2516   0.532   6.204   3.129
 1420W        W 2517   2.766   0.317   2.755
 1421W        W 2518   3.043   0.357   7.017
 1422W        W 2519   3.017   4.769   2.442
 1423W        W 2520   6.702   1.587   1.012
 1424W        W 2521   7.654   7.606   4.340
 1425W        W 2522   2.018   2.511   2.460
 1426W        W 2523   6.307   0.071   1.782
 1427W        W 2524   5.339   2.579   3.728
 1428W        W 2525   2.529   5.449   6.412
 1429W        W 2526   3.428   5.126   6.378
 1430W        W 2527   7.373   3.802   3.851
 1431W        W 2528   3.151   2.240   0.425
 1432W        W 2529   2.520   0.357   6.877
 1433W        W 2530   7.254   2.918   6.584
 1434W        W 2531   2.553   1.263   1.173
 1435W        W 2532   0.615   4.878   2.424
 1436W        W 2533   0.527   1.313   7.570
 1437W        W 2534   7.116   5.438   7.039
 1438W        W 2535   1.996   0.039   3.378
 1439W        W 2536   7.485   2.874   6.173
 1440W        W 2537   3.436   4.257   2.072
 1441W        W 2538   7.335   1.510   1.843
 1442W        W 2539   0.624   7.690   4.069
 1443W        W 2540   1.189   5.528   3.936
 1444W        W 2541   3.193   1.760   0.687
 1445W        W 2542   3.407   4.553   0.697
 1446W        W 2543   4.816   2.432   7.080
 1447W        W 2544   0.464   4.182   5.391
 1448W        W 2545   5.085   2.746   4.577
 1449W        W 2546   6.311   1.793   6.945
 1450W        W 2547   0.710   6.439   5.324
 1451W        W 2548   1.390   3.206   7.456
 1452W        W 2549   1.789   5.157   2.912
 1453W        W 2550   2.531   1.020   2.076
 1454W        W 2551   6.670   2.988   3.101
 1455W        W 2552   3.016   3.384   3.020
 1456W        W 2553   5.513   6.056   4.835
 1457W        W 2554   5.463   1.985   5.925
 1458W        W 2555   0.329   1.328   6.700
 1459W        W 2556   1.992   2.594   6.242
 1460W        W 2557   0.177   2.228   6.485
 1461W        W 2558   4.955   7.737   2.542
 1462W        W 2559   3.162   2.630   5.248
 1463W        W 2560   5.435   6.421   5.905
 1464W        W 2561   6.318   4.527   1.141
 1465W        W 2562   2.795   3.487   5.861
 1466W        W 2563   5.505   4.971   7.689
 1467W        W 2564   5.537   4.004   1.517
 1468W        W 2565   6.639   4.827   0.731
 1469W        W 2566   1.803   5.346   5.932
 1470W        W 2567   3.276   1.815   5.063
 1471W        W 2568   1.989   5.266   3.367
 1472W        W 2569   4.133   0.137   6.210
 1473W        W 2570   1.441   0.409   2.745
 1474W        W 2571   6.397   3.710   5.643
 1475W        W 2572   0.576   4.406   7.164
 1476W        W 2573   1.734   0.332   7.420
 1477W        W 2574   2.660   5.098   7.919
 1478W        W 2575   4.438   5.155   5.178
 1479W        W 2576   2.671   1.960   6.346
 1480W        W 2577   1.765   6.611   2.013
 1481W        W 2578   2.391   3.822   4.472
 1482W        W 2579   3.205   0.791   3.265
 1483W        W 2580   5.526   5.410   6.960
 1484W        W 2581   1.990   2.427   0.388
 1485W        W 2582   0.980   5.608   5.702
 1486W        W 2583   5.858   2.253   5.700
 1487W        W 2584   2.491   4.948   4.695
 1488W        W 2585   2.467   0.548   1.911
 1489W        W 2586   2.000   6.580   3.082
 1490W        W 2587   1.486   6.327   1.615
 1491W        W 2588   6.531   4.885   2.258
 1492W        W 2589   2.016   0.649   2.763
 1493W        W 2590   2.458   2.247   5.464
 1494W        W 2591   2.046   1.167   1.366
 1495W        W 2592   0.776   7.026   3.448
 1496W        W 2593   6.257   0.049   7.804
 1497W        W 2594   2.769   2.332   3.953
 1498W        W 2595   2.647   5.507   6.980
 1499W        W 2596   5.881   5.785   2.260
 1500W        W 2597   2.657   2.848   4.251
 1501W        W 2598   3.424   6.925   3.613
 1502W        W 2599   2.790   1.854   5.222
 1503W        W 2600   0.483   0.297   6.555
 1504W        W 2601   1.912   1.926   2.155
 1505W        W 2602   3.943   1.522   7.879
 1506W        W 2603   4.429   4.711   7.357
 1507W        W 2604   1.396   6.712   7.553
 1508W        W 2605   4.099   3.364   5.994
 1509W        W 2606   7.494   1.191   0.984
 1510W        W 2607   5.960   1.198   4.977
 1511W        W 2608   5.033   5.651   0.213
 1512W        W 2609   5.166   3.297   2.554
 1513W        W 2610   6.900   2.318   0.600
 1514W        W 2611   1.111   2.459   6.875
 1515W        W 2612   0.302   0.807   6.721
 1516W        W 2613   7.073   4.583   3.715
 1517W        W 2614   7.179   3.464   7.307
 1518W        W 2615   4.388   4.202   7.528
 1519W        W 2616   1.875   5.670   2.863
 1520W        W 2617   1.249   4.190   0.839
 1521W        W 2618   4.097   2.644   2.627
 1522W        W 2619   4.638   6.353   5.644
 1523W        W 2620   3.580   3.200   1.064
 1524W        W 2621   3.843   0.785   5.595
 1525W        W 2622   7.330   6.644   5.037
 1526W        W 2623   2.521   4.185   0.344
 1527W        W 2624   3.114   6.868   0.871
 1528W        W 2625   1.413   2.944   7.000
 1529W        W 2626   3.474   0.799   4.361
 1530W        W 2627   2.069   7.374   4.854
 1531W        W 2628   0.448   0.638   6.210
 1532W        W 2629   1.566   1.004   6.819
 1533W        W 2630   2.584   5.970   4.201
 1534W        W 2631   0.985   4.245   5.589
 1535W        W 2632   7.237   3.157   3.177
 1536W        W 2633   4.119   2.395   5.632
 1537W        W 2634   1.037   0.452   5.780
 1538W        W 2635   1.074   0.291   3.689
 1539W        W 2636   6.143   0.541   2.088
 1540W        W 2637   5.531   6.685   1.928
 1541W        W 2638   2.042   2.409   3.534
 1542W        W 2639   4.395   2.448   3.909
 1543W        W 2640   2.566   1.447   6.183
 1544W        W 2641   0.638   0.525   7.210
 1545W        W 2642   6.034   5.371   2.947
 1546W        W 2643   7.386   3.899   0.274
 1547W        W 2644   3.674   5.952   4.055
 1548W        W 2645   1.230   7.334   0.843
 1549W        W 2646   1.219   1.645   0.593
 1550W        W 2647   2.223   1.625   6.504
 1551W        W 2648   6.641   4.362   0.719
 1552W        W 2649   3.288   3.889   5.962
 1553W        W 2650   7.706   2.435   2.812
 1554W        W 2651   2.443   6.161   5.267
 1555W        W 2652   1.811   5.290   6.790
 1556W        W 2653   3.406   2.905   0.505
 1557W        W 2654   5.567   7.750   2.973
 1558W        W 2655   4.133   5.179   7.571
 1559W        W 2656   2.783   3.019   2.816
 1560W        W 2657   1.930   7.493   5.355
 1561W        W 2658   0.612   2.337   0.724
 1562W        W 2659   4.255   5.130   6.119
 1563W        W 2660   6.893   2.676   4.015
 1564W        W 2661   7.152   4.350   2.928
 1565W        W 2662   7.917   1.335   0.567
 1566W        W 2663   2.199   1.995   6.868
 1567W        W 2664   5.467   4.137   5.269
 1568W        W 2665   7.769   0.007   0.609
 1569W        W 2666   3.719   0.018   3.235
 1570W        W 2667   4.320   7.270   0.451
 1571W        W 2668   5.418   6.375   7.265
 1572W        W 2669   4.813   4.765   3.028
 1573W        W 2670   2.061   6.437   0.850
 1574W        W 2671   2.863   5.175   5.543
 1575W        W 2672   2.775   4.943   2.837
 1576W        W 2673   2.021   3.080   1.712
 1577W        W 2674   6.124   0.950   6.361
 1578W        W 2675   7.318   7.049   6.474
 1579W        W 2676   0.326   0.362   5.032
 1580W        W 2677   4.045   6.518   2.556
 1581W        W 2678   3.916   2.169   2.571
 1582W        W 2679   0.726   0.133   1.450
 1583W        W 2680   4.917   4.577   6.107
 1584W        W 2681   4.726   6.268   3.282
 1585W        W 2682   2.015   3.447   4.292
 1586W        W 2683   0.942   0.045   7.397
 1587W        W 2684   1.862   7.796   7.231
 1588W        W 2685   4.214   6.426   0.818
 1589W        W 2686   3.070   3.944   5.142
 1590W        W 2687   0.766   6.490   4.750
 1591W        W 2688   6.610   2.008   7.665
 1592W        W 2689   5.943   7.490   2.121
 1593W        W 2690   3.714   6.869   0.295
 1594W        W 2691   4.883   0.308   0.446
 1595W        W 2692   2.308   3.787   7.320
 1596W        W 2693   2.951   1.450   3.834
 1597W        W 2694   1.573   0.384   4.582
 1598W        W 2695   1.293   4.122   1.702
 1599W        W 2696   1.215   3.061   5.914
 1600W        W 2697   0.721   5.963   5.409
 1601W        W 2698   0.454   0.381   2.065
 1602W        W 2699   2.170   4.913   3.719
 1603W        W 2700   6.632   3.002   3.596
 1604W        W 2701   4.047   6.348   3.892
 1605W        W 2702   4.296   3.258   4.496
 1606W        W 2703   2.112   6.221   4.236
 1607W        W 2704   3.852   3.025   1.763
 1608W        W 2705   4.329   4.651   0.978
 1609W        W 2706   4.883   4.704   7.157
 1610W        W 2707   6.255   2.020   4.540
 1611W        W 2708   0.548   2.462   1.569
 1612W        W 2709   4.487   5.047   1.235
 1613W        W 2710   2.172   6.763   0.433
 1614W        W 2711   2.230   5.879   0.403
 1615W        W 2712   1.522   4.102   4.276
 1616W        W 2713   2.072   5.509   5.415
 1617W        W 2714   6.074   4.177   2.809
 1618W        W 2715   4.080   4.237   6.683
 1619W        W 2716   6.735   0.824   0.649
 1620W        W 2717   4.665   1.165   0.297
 1621W        W 2718   0.621   6.282   2.585
 1622W        W 2719   4.929   5.654   6.654
 1623W        W 2720   4.505   1.092   6.669
 1624W        W 2721   0.290   6.139   6.042
 1625W        W 2722   7.285   7.605   3.871
 1626W        W 2723   3.982   4.589   2.126
 1627W        W 2724   5.631   0.344   2.737
 1628W        W 2725   5.580   7.423   4.392
 1629W        W 2726   5.927   2.244   2.715
 1630W        W 2727   4.717   4.169   0.270
 1631W        W 2728   0.612   7.069   7.615
 1632W        W 2729   2.352   5.459   0.670
 1633W        W 2730   1.368   7.756   1.100
 1634W        W 2731   4.551   5.998   4.611
 1635W        W 2732   0.932   1.536   7.806
 1636W        W 2733   1.355   7.960   7.427
 1637W        W 2734   5.969   2.937   7.246
 1638W        W 2735   3.856   3.053   6.327
 1639W        W 2736   2.370   6.774   1.299
 1640W        W 2737   4.830   1.667   0.222
 1641W        W 2738   7.390   6.099   1.076
 1642W        W 2739   3.657   1.297   6.978
 1643W        W 2740   6.983   6.902   2.143
 1644W        W 2741   3.076   6.488   3.479
 1645W        W 2742   3.312   3.741   7.089
 1646W        W 2743   3.918   2.826   0.213
 1647W        W 2744   4.656   6.791   7.052
 1648W        W 2745   7.464   4.337   1.413
 1649W        W 2746   1.634   1.361   7.526
 1650W        W 2747   6.781   5.229   7.787
 1651W        W 2748   0.824   4.641   7.502
 1652W        W 2749   1.505   1.445   5.910
 1653W        W 2750   2.334   4.612   3.045
 1654W        W 2751   6.421   3.439   1.378
 1655W        W 2752   5.718   6.797   7.143
 1656W        W 2753   4.141   2.110   4.654
 1657W        W 2754   3.156   3.795   2.145
 1658W        W 2755   7.337   2.077   0.571
 1659W        W 2756   7.699   6.299   0.657
 1660W        W 2757   6.321   3.321   0.828
 1661W        W 2758   1.000   2.528   3.516
 1662W        W 2759   5.976   1.385   1.665
 1663W        W 2760   2.449   1.452   6.961
 1664W        W 2761   3.286   7.186   5.262
 1665W        W 2762   3.228   1.384   4.333
 1666W        W 2763   1.714   7.015   3.110
 1667W        W 2764   4.507   1.992   3.671
 1668W        W 2765   4.557   0.474   6.112
 1669W        W 2766   2.732   1.795   4.676
 1670W        W 2767   6.096   7.198   1.694
 1671W        W 2768   3.501   5.123   1.203
 1672W        W 2769   0.218   3.341   0.548
 1673W        W 2770   1.149   1.280   0.176
 1674W        W 2771   6.651   5.012   3.663
 1675W        W 2772   2.243   6.374   6.846
 1676W        W 2773   3.839   5.018   1.902
 1677W        W 2774   6.737   1.683   5.535
 1678W        W 2775   2.236   1.807   3.504
 1679W        W 2776   3.303   4.917   6.917
 1680W        W 2777   6.465   4.263   1.682
 1681W        W 2778   4.609   3.604   7.491
 1682W        W 2779   0.145   7.014   7.565
 1683W        W 2780   6.803   1.985   6.028
 1684W        W 2781   6.118   6.671   2.613
 1685W        W 2782   1.076   6.421   0.699
 1686W        W 2783   4.283   4.278   0.635
 1687W        W 2784   3.646   5.627   4.519
 1688W        W 2785   7.584   1.423   3.453
 1689W        W 2786   5.680   3.808   3.481
 1690W        W 2787   2.062   0.753   5.628
 1691W        W 2788   6.958   3.903   5.267
 1692W        W 2789   4.620   4.195   1.225
 1693W        W 2790   0.701   2.712   7.109
 1694W        W 2791   4.886   3.186   5.348
 1695W        W 2792   0.096   0.840   5.805
 1696W        W 2793   3.081   6.574   6.422
 1697W        W 2794   0.478   5.827   0.451
 1698W        W 2795   5.625   4.828   4.497
 1699W        W 2796   1.130   4.680   3.813
 1700W        W 2797   5.034   5.779   4.941
 1701W        W 2798   7.385   6.463   0.108
 1702W        W 2799   0.993   4.627   2.170
 1703W        W 2800   4.080   1.861   5.925
 1704W        W 2801   6.219   3.480   1.869
 1705W        W 2802   0.039   1.014   4.501
 1706W        W 2803   3.275   5.192   5.873
 1707W        W 2804   1.488   3.470   6.015
 1708W        W 2805   5.521   7.260   0.821
 1709W        W 2806   6.354   2.104   5.081
 1710W        W 2807   1.212   4.380   1.303
 1711W        W 2808   6.844   4.263   6.637
 1712W        W 2809   1.089   6.075   1.719
 1713W        W 2810   0.263   5.949   2.745
 1714W        W 2811   4.371   5.161   7.115
 1715W        W 2812   2.051   0.698   1.134
 1716W        W 2813   5.958   1.234   0.640
 1717W        W 2814   3.764   1.533   2.223
 1718W        W 2815   5.474   0.387   4.764
 1719W        W 2816   7.461   4.369   3.499
 1720W        W 2817   5.084   2.527   6.522
 1721W        W 2818   2.245   1.882   6.034
 1722W        W 2819   1.216   2.837   3.160
 1723W        W 2820   3.278   0.957   6.817
 1724W        W 2821   7.474   4.896   3.837
 1725W        W 2822   0.162   5.335   3.125
 1726W        W 2823   0.639   0.516   3.984
 1727W        W 2824   5.772   5.408   1.892
 1728W        W 2825   0.563   6.360   6.866
 1729W        W 2826   1.679   3.131   3.960
 1730W        W 2827   4.232   7.719   1.172
 1731W        W 2828   5.484   5.382   1.431
 1732W        W 2829   2.121   5.639   6.736
 1733W        W 2830   0.173   6.455   2.522
 1734W        W 2831   3.278   2.746   0.980
 1735W        W 2832   0.910   2.543   2.820
 1736W        W 2833   7.288   0.628   2.954
 1737W        W 2834   1.905   5.102   4.144
 1738W        W 2835   6.699   5.577   6.068
 1739W        W 2836   1.514   6.414   4.897
 1740W        W 2837   3.148   2.064   6.582
 1741W        W 2838   7.590   4.065   6.029
 1742W        W 2839   7.778   2.212   3.494
 1743W        W 2840   2.633   6.592   6.671
 1744W        W 2841   7.014   0.758   5.575
 1745W        W 2842   3.049   3.194   0.397
 1746W        W 2843   7.161   2.308   6.846
 1747W        W 2844   5.751   4.509   2.904
 1748W        W 2845   1.516   6.114   0.282
 1749W        W 2846   2.008   2.416   2.989
 1750W        W 2847   0.508   3.635   5.074
 1751W        W 2848   5.797   3.576   0.022
 1752W        W 2849   6.622   0.755   5.958
 1753W        W 2850   3.004   6.184   6.099
 1754W        W 2851   4.865   2.099   6.601
 1755W        W 2852   6.064   3.808   1.584
 1756W        W 2853   5.454   0.482   0.221
 1757W        W 2854   3.931   4.829   6.378
 1758W        W 2855   2.298   0.101   5.777
 1759W        W 2856   4.324   1.275   2.658
 1760W        W 2857   3.206   0.200   7.426
 1761W        W 2858   3.873   3.403   4.280
 1762W        W 2859   0.250   5.444   2.615
 1763W        W 2860   2.897   5.189   1.945
 1764W        W 2861   6.924   5.663   7.516
 1765W        W 2862   0.252   6.321   5.505
 1766W        W 2863   0.999   1.575   1.240
 1767W        W 2864   2.669   5.857   0.711
 1768W        W 2865   2.109   6.761   4.220
 1769W        W 2866   1.855   0.008   4.644
 1770W        W 2867   1.808   0.282   6.695
 1771W        W 2868   4.581   3.576   0.203
 1772W        W 2869   1.275   3.983   5.953
 1773W        W 2870   7.166   7.340   7.073
 1774W        W 2871   4.955   7.670   5.810
 1775W        W 2872   6.068   6.120   1.895
 1776W        W 2873   3.845   4.224   0.864
 1777W        W 2874   4.206   1.064   4.467
 1778W        W 2875   3.553   7.069   3.098
 1779W        W 2876   0.902   5.098   5.379
 1780W        W 2877   0.218   5.814   7.459
 1781W        W 2878   3.240   5.366   7.827
 1782W        W 2879   0.652   1.996   3.002
 1783W        W 2880   1.988   3.482   3.790
 1784W        W 2881   6.788   4.567   1.136
 1785W        W 2882   6.986   1.091   7.327
 1786W        W 2883   6.021   2.005   3.662
 1787W        W 2884   7.208   6.114   2.773
 1788W        W 2885   2.721   6.087   2.596
 1789W        W 2886   5.125   4.333   6.740
 1790W        W 2887   3.246   3.966   4.592
 1791W        W 2888   4.933   3.135   0.230
 1792W        W 2889   2.226   5.983   3.793
 1793W        W 2890   3.987   5.360   6.617
 1794W        W 2891   6.694   0.054   2.632
 1795W        W 2892   4.480   4.619   1.488
 1796W        W 2893   1.183   2.925   4.479
 1797W        W 2894   5.804   2.326   4.417
 1798W        W 2895   2.377   6.324   2.837
 1799W        W 2896   2.756   1.468   7.538
 1800W        W 2897   2.851   1.354   4.767
 1801W        W 2898   4.930   2.152   0.417
 1802W        W 2899   1.365   5.575   2.878
 1803W        W 2900   5.550   0.934   0.903
 1804W        W 2901   1.994   3.242   5.618
 1805W        W 2902   3.090   7.742   7.182
 1806W        W 2903   4.484   4.262   1.770
 1807W        W 2904   2.129   7.321   4.267
 1808W        W 2905   2.731   3.539   2.157
 1809W        W 2906   4.734   1.451   7.433
 1810W        W 2907   7.606   6.997   3.671
 1811W        W 2908   5.458   7.250   7.553
 1812W        W 2909   1.042   4.241   4.080
 1813W        W 2910   7.744   3.892   3.563
 1814W        W 2911   0.779   0.999   0.453
 1815W        W 2912   5.931   6.818   6.623
 1816W        W 2913   1.308   3.509   7.007
 1817W        W 2914   1.279   7.200   7.412
 1818W        W 2915   1.781   2.625   1.639
 1819W        W 2916   2.386   7.083   7.388
 1820W        W 2917   1.947   4.569   5.697
 1821W        W 2918   3.083   3.534   2.502
 1822W        W 2919   1.068   6.386   6.983
 1823W        W 2920   1.229   0.181   0.542
 1824W        W 2921   1.669   5.554   4.272
 1825W        W 2922   1.354   1.459   6.841
 1826W        W 2923   1.082   0.725   7.076
 1827W        W 2924   0.538   5.265   0.141
 1828W        W 2925   6.805   6.437   2.152
 1829W        W 2926   3.837   6.798   3.835
 1830W        W 2927   4.247   6.437   7.319
 1831W        W 2928   2.739   3.922   6.057
 1832W        W 2929   0.376   5.804   6.950
 1833W        W 2930   1.421   1.628   3.957
 1834W        W 2931   0.104   6.058   0.834
 1835W        W 2932   5.989   6.834   2.167
 1836W        W 2933   6.769   6.851   5.832
 1837W        W 2934   6.058   0.478   4.867
 1838W        W 2935   4.480   1.822   4.931
 1839W        W 2936   7.475   1.578   0.488
 1840W        W 2937   3.558   2.223   5.276
 1841W        W 2938   1.804   0.351   5.506
 1842W        W 2939   1.537   7.087   1.849
 1843W        W 2940   6.088   4.661   1.547
 1844W        W 2941   5.708   1.903   0.037
 1845W        W 2942   5.630   6.787   1.121
 1846W        W 2943   4.092   1.777   3.399
 1847W        W 2944   0.644   2.928   1.359
 1848W        W 2945   6.453   3.035   7.293
 1849W        W 2946   4.664   1.779   1.867
 1850W        W 2947   7.704   1.951   6.328
 1851W        W 2948   0.372   2.585   6.091
 1852W        W 2949   0.018   7.813   7.121
 1853W        W 2950   7.154   1.682   3.069
 1854W        W 2951   1.773   5.616   6.378
 1855W        W 2952   1.520   5.386   2.095
 1856W        W 2953   2.583   0.053   0.162
 1857W        W 2954   2.198   3.979   4.941
 1858W        W 2955   7.338   6.605   1.920
 1859W        W 2956   5.544   1.009   4.693
 1860W        W 2957   1.641   7.805   5.591
 1861W        W 2958   5.860   1.826   3.177
 1862W        W 2959   4.464   2.025   0.416
 1863W        W 2960   1.119   1.322   1.653
 1864W        W 2961   1.498   6.300   7.258
 1865W        W 2962   7.939   7.609   1.269
 1866W        W 2963   3.399   1.465   7.873
 1867W        W 2964   4.192   6.397   4.677
 1868W        W 2965   0.905   2.939   1.780
 1869W        W 2966   1.069   1.086   6.610
 1870W        W 2967   2.942   1.370   0.471
 1871W        W 2968   7.490   3.705   5.539
 1872W        W 2969   3.392   6.196   5.279
 1873W        W 2970   6.058   4.792   2.478
 1874W        W 2971   6.084   7.280   4.401
 1875W        W 2972   6.257   2.546   7.049
 1876W        W 2973   4.510   0.641   0.463
 1877W        W 2974   3.231   4.870   3.951
 1878W        W 2975   2.786   2.278   2.540
 1879W        W 2976   3.359   7.246   2.620
 1880W        W 2977   1.914   4.505   0.423
 1881W        W 2978   4.808   0.959   5.238
 1882W        W 2979   6.547   1.250   2.513
 1883W        W 2980   3.942   5.517   7.113
 1884W        W 2981   2.064   5.285   4.671
 1885W        W 2982   0.980   5.934   6.746
 1886W        W 2983   2.474   4.554   3.569
 1887W        W 2984   7.683   7.643   1.674
 1888W        W 2985   2.263   0.605   6.523
 1889W        W 2986   2.121   3.572   5.233
 1890W        W 2987   2.684   4.019   1.933
 1891W        W 2988   2.143   5.431   0.147
 1892W        W 2989   6.948   5.099   0.420
 1893W        W 2990   4.020   3.477   7.739
 1894W        W 2991   4.912   7.167   6.819
 1895W        W 2992   0.162   1.208   6.194
 1896W        W 2993   4.949   4.012   3.649
 1897W        W 2994   0.939   2.608   1.054
 1898W        W 2995   6.930   3.290   1.548
 1899W        W 2996   6.875   2.443   7.941
 1900W        W 2997   2.224   7.372   2.325
 1901W        W 2998   0.232   0.326   0.117
 1902W        W 2999   7.065   3.438   6.826
 1903W        W 3000   2.483   2.831   2.485
 1904W        W 3001   7.006   7.441   1.834
 1905W        W 3002   2.497   5.128   0.319
 1906W        W 3003   5.769   2.356   6.202
 1907W        W 3004   4.160   1.781   2.363
 1908W        W 3005   5.229   1.415   3.787
 1909W        W 3006   7.013   5.180   2.507
 1910W        W 3007   2.883   2.815   3.299
 1911W        W 3008   4.945   3.942   1.648
 1912W        W 3009   6.393   6.526   5.815
 1913W        W 3010   2.329   1.970   4.965
 1914W        W 3011   1.610   4.718   1.373
 1915W        W 3012   1.421   4.692   0.411
 1916W        W 3013   3.969   2.968   3.260
 1917W        W 3014   0.714   2.734   4.520
 1918W        W 3015   0.744   3.989   0.786
 1919W        W 3016   0.895   3.346   2.040
 1920W        W 3017   3.964   0.095   7.596
 1921W        W 3018   1.916   6.162   6.509
 1922W        W 3019   0.810   3.740   4.701
 1923W        W 3020   3.886   2.596   6.532
 1924W        W 3021   4.173   0.688   4.726
 1925W        W 3022   2.978   5.242   6.632
 1926W        W 3023   7.896   6.912   3.206
 1927W        W 3024   5.367   4.123   7.115
 1928W        W 3025   6.887   0.308   4.326
 1929W        W 3026   7.839   1.862   0.694
 1930W        W 3027   6.764   7.893   6.301
 1931W        W 3028   2.869   5.454   3.157
 1932W        W 3029   0.456   6.649   3.371
 1933W        W 3030   6.847   7.061   6.775
 1934W        W 3031   5.428   4.338   6.311
 1935W        W 3032   4.785   7.683   3.005
 1936W        W 3033   3.485   1.510   4.750
 1937W        W 3034   6.052   5.610   7.202
 1938W        W 3035   5.622   2.695   7.608
 1939W        W 3036   7.213   2.023   6.405
 1940W        W 3037   3.345   1.759   6.980
 1941W        W 3038   7.265   3.383   4.131
 1942W        W 3039   0.897   2.437   1.927
 1943W        W 3040   6.744   5.944   5.570
 1944W        W 3041   5.191   4.403   4.922
 1945W        W 3042   4.155   3.388   0.822
 1946W        W 3043   1.011   4.268   3.553
 1947W        W 3044   4.041   0.098   2.881
 1948W        W 3045   5.980   0.222   6.923
 1949W        W 3046   1.931   5.643   1.890
 1950W        W 3047   5.361   5.747   4.392
 1951W        W 3048   5.443   6.904   6.586
 1952W        W 3049   2.904   0.136   3.613
 1953W        W 3050   3.982   0.049   1.331
 1954W        W 3051   5.490   1.311   1.813
 1955W        W 3052   1.969   0.800   7.492
 1956W        W 3053   4.339   5.586   4.381
 1957W        W 3054   5.755   4.057   4.010
 1958W        W 3055   3.614   5.681   6.101
 1959W        W 3056   6.375   0.152   3.029
 1960W        W 3057   6.007   2.726   6.585
 1961W        W 3058   5.124   7.519   0.590
 1962W        W 3059   0.631   2.561   6.552
 1963W        W 3060   2.343   4.822   4.155
 1964W        W 3061   0.904   0.203   6.894
 1965W        W 3062   6.977   2.464   1.216
 1966W        W 3063   4.050   4.918   1.443
 1967W        W 3064   1.003   7.335   3.802
 1968W        W 3065   6.036   4.268   4.576
 1969W        W 3066   7.041   7.097   7.540
 1970W        W 3067   0.184   4.545   7.415
 1971W        W 3068   3.354   2.013   1.790
 1972W        W 3069   2.768   0.619   3.835
 1973W        W 3070   2.150   0.807   5.092
 1974W        W 3071   5.449   2.810   6.303
 1975W        W 3072   0.665   0.563   4.547
 1976W        W 3073   1.060   6.492   1.365
 1977W        W 3074   5.555   7.621   7.290
 1978W        W 3075   3.691   5.193   2.841
 1979W        W 3076   6.516   0.704   5.207
 1980W        W 3077   7.109   0.781   0.947
 1981W        W 3078   7.685   3.752   0.675
 1982W        W 3079   7.342   4.455   4.127
 1983W        W 3080   0.872   0.546   1.706
 1984W        W 3081   7.572   0.771   0.087
 1985W        W 3082   5.756   2.698   0.226
 1986W        W 3083   6.722   6.583   0.658
 1987W        W 3084   6.558   6.847   0.143
 1988W        W 3085   0.443   7.415   7.157
 1989W        W 3086   1.786   7.842   0.605
 1990W        W 3087   1.247   2.453   5.273
 1991W        W 3088   7.451   7.665   4.820
 1992W        W 3089   1.708   0.644   5.006
 1993W        W 3090   2.120   6.678   2.532
 1994W        W 3091   5.907   4.243   7.130
 1995W        W 3092   6.799   7.672   5.475
 1996W        W 3093   2.074   1.051   0.724
 1997W        W 3094   7.492   0.128   5.132
 1998W        W 3095   5.073   7.462   4.394
 1999W        W 3096   6.704   5.388   4.885
 2000W        W 3097   5.363   1.553   5.650
 2001W        W 3098   5.110   0.027   7.707
 2002W        W 3099   3.310   5.472   0.875
 2003W        W 3100   5.725   3.801   4.419
 2004W        W 3101   4.911   1.143   4.080
 2005W        W 3102   3.717   5.742   5.093
 2006W        W 3103   4.792   2.132   4.068
 2007W        W 3104   7.317   7.223   4.236
 2008W        W 3105   1.492   0.154   5.789
 2009W        W 3106   0.327   2.872   7.453
 2010W        W 3107   2.571   4.005   2.386
 2011W        W 3108   6.944   3.436   0.304
 2012W        W 3109   6.871   3.910   6.229
 2013W        W 3110   2.419   6.278   0.534
 2014W        W 3111   7.835   2.327   2.343
 2015W        W 3112   2.330   4.349   0.738
 2016W        W 3113   4.846   5.551   4.475
 2017W        W 3114   5.207   3.082   6.648
 2018W        W 3115   3.010   2.529   6.167
 2019W        W 3116   5.039   4.198   2.823
 2020W        W 3117   2.634   6.972   4.249
 2021W        W 3118   7.788   2.970   6.560
 2022W        W 3119   4.204   0.818   0.112
 2023W        W 3120   6.707   0.517   4.802
 2024W        W 3121   4.422   0.979   3.282
 2025W        W 3122   1.565   6.430   4.329
 2026W        W 3123   4.923   0.493   1.603
 2027W        W 3124   6.733   6.893   7.191
 2028W        W 3125   5.080   6.180   0.174
 2029W        W 3126   1.136   2.339   1.479
 2030W        W 3127   4.574   7.926   4.492
 2031W        W 3128   6.431   2.981   4.706
 2032W        W 3129   4.453   1.194   1.762
 2033W        W 3130   3.291   6.397   4.633
 2034W        W 3131   6.050   6.236   2.412
 2035W        W 3132   3.663   7.116   1.159
 2036W        W 3133   0.132   4.937   6.495
 2037W        W 3134   5.599   6.659   2.415
 2038W        W 3135   7.719   2.776   5.212
 2039W        W 3136   6.565   1.234   0.507
 2040W        W 3137   6.858   0.999   4.632
 2041W        W 3138   4.568   6.102   7.586
 2042W        W 3139   6.335   5.825   4.635
 2043W        W 3140   1.793   7.700   4.061
 2044W        W 3141   0.518   0.560   5.704
 2045W        W 3142   7.566   3.554   1.996
 2046W        W 3143   7.455   4.821   1.507
 2047W        W 3144   7.054   1.237   0.668
 2048W        W 3145   3.747   0.504   7.963
 2049W        W 3146   0.305   2.608   4.757
 2050W        W 3147   3.042   6.882   7.897
 2051W        W 3148   4.485   1.081   3.947
 2052W        W 3149   7.461   0.564   5.467
 2053W        W 3150   1.196   2.100   3.814
 2054W        W 3151   2.814   2.144   1.301
 2055W        W 3152   7.560   2.897   0.353
 2056W        W 3153   2.665   1.281   2.603
 2057W        W 3154   5.734   6.775   3.586
 2058W        W 3155   3.903   3.805   0.033
 2059W        W 3156   1.245   1.892   7.627
 2060W        W 3157   6.143   5.036   1.992
 2061W        W 3158   1.369   0.912   4.711
 2062W        W 3159   3.060   7.139   1.803
 2063W        W 3160   0.136   7.306   4.068
 2064W        W 3161   7.712   2.916   1.059
 2065W        W 3162   6.502   4.965   6.060
 2066W        W 3163   3.713   3.025   7.632
 2067W        W 3164   4.830   5.991   4.145
 2068W        W 3165   6.005   5.173   6.258
 2069W        W 3166   2.016   3.438   6.221
 2070W        W 3167   6.293   5.731   2.574
 2071W        W 3168   6.619   6.289   4.656
 2072W        W 3169   6.605   0.380   5.674
 2073W        W 3170   1.946   6.233   2.305
 2074W        W 3171   6.194   2.331   4.114
 2075W        W 3172   6.335   2.501   4.544
 2076W        W 3173   7.197   7.111   5.707
 2077W        W 3174   3.094   5.030   7.484
 2078W        W 3175   1.483   2.462   2.911
 2079W        W 3176   6.832   3.459   3.281
 2080W        W 3177   2.259   4.979   2.707
 2081W        W 3178   4.809   7.388   6.248
 2082W        W 3179   1.508   0.918   0.706
 2083W        W 3180   1.471   1.984   5.645
 2084W        W 3181   6.239   7.153   2.653
 2085W        W 3182   6.896   5.240   6.613
 2086W        W 3183   0.248   6.419   4.520
 2087W        W 3184   5.987   6.706   4.450
 2088W        W 3185   6.414   5.671   0.829
 2089W        W 3186   4.150   6.563   3.433
 2090W        W 3187   1.709   3.452   2.051
 2091W        W 3188   5.853   5.479   3.467
 2092W        W 3189   5.027   6.128   3.666
 2093W        W 3190   1.676   0.131   1.333
 2094W        W 3191   6.952   7.493   2.838
 2095W        W 3192   6.462   3.965   1.228
 2096W        W 3193   1.542   2.613   4.929
 2097W        W 3194   6.478   7.410   2.230
 2098W        W 3195   2.854   6.739   5.971
 2099W        W 3196   4.171   7.735   0.390
 2100W        W 3197   3.476   6.216   6.247
 2101W        W 3198   5.976   4.273   1.778
 2102W        W 3199   4.231   3.468   6.724
 2103W        W 3200   7.483   5.725   2.533
 2104W        W 3201   4.136   3.286   2.536
 2105W        W 3202   0.953   1.296   4.738
 2106W        W 3203   5.764   7.248   1.329
 2107W        W 3204   5.555   3.660   3.024
 2108W        W 3205   2.247   4.159   6.946
 2109W        W 3206   2.685   5.626   4.663
 2110W        W 3207   4.984   1.447   5.905
 2111W        W 3208   7.443   7.093   3.193
 2112W        W 3209   5.739   3.897   4.912
 2113W        W 3210   1.410   4.859   2.240
 2114W        W 3211   4.997   3.088   4.195
 2115W        W 3212   2.423   0.289   3.616
 2116W        W 3213   1.099   2.567   4.093
 2117W        W 3214   1.967   3.293   3.298
 2118W        W 3215   1.714   3.865   5.086
 2119W        W 3216   6.123   4.246   6.524
 2120W        W 3217   5.251   3.082   4.908
 2121W        W 3218   5.037   5.659   3.284
 2122W        W 3219   7.133   3.427   5.196
 2123W        W 3220   3.815   5.509   3.243
 2124W        W 3221   1.780   2.873   2.126
 2125W        W 3222   3.029   1.021   7.718
 2126W        W 3223   6.670   6.111   7.621
 2127W        W 3224   0.292   7.669   4.888
 2128W        W 3225   7.219   4.737   3.237
 2129W        W 3226   7.135   7.534   6.400
 2130W        W 3227   2.107   2.008   0.655
 2131W        W 3228   6.875   3.095   0.971
 2132W        W 3229   5.652   6.236   1.100
 2133W        W 3230   3.255   7.550   6.398
 2134W        W 3231   3.218   6.107   1.907
 2135W        W 3232   1.544   0.199   5.038
 2136W        W 3233   1.450   0.460   4.087
 2137W        W 3234   2.841   6.672   1.246
 2138W        W 3235   1.278   3.882   4.863
 2139W        W 3236   5.001   5.580   7.208
 2140W        W 3237   6.966   4.513   7.226
 2141W        W 3238   4.330   1.230   4.911
 2142W        W 3239   1.903   2.693   0.976
 2143W        W 3240   5.820   0.175   0.058
 2144W        W 3241   5.564   5.823   5.305
 2145W        W 3242   5.302   6.684   0.721
 2146W        W 3243   5.586   1.293   3.450
 2147W        W 3244   0.690   5.426   4.971
 2148W        W 3245   2.518   0.477   4.889
 2149W        W 3246   0.700   3.652   7.780
 2150W        W 3247   3.209   1.862   4.540
 2151W        W 3248   6.523   5.783   7.263
 2152W        W 3249   3.752   0.503   6.073
 2153W        W 3250   7.441   5.738   4.790
 2154W        W 3251   4.783   6.740   2.770
 2155W        W 3252   3.101   5.711   1.584
 2156W        W 3253   3.629   3.848   0.435
 2157W        W 3254   5.246   2.146   3.864
 2158W        W 3255   4.198   2.082   1.728
 2159W        W 3256   2.406   5.881   1.700
 2160W        W 3257   4.833   2.440   3.589
 2161W        W 3258   3.858   0.726   2.009
 2162W        W 3259   1.931   6.158   1.784
 2163W        W 3260   2.208   0.347   1.461
 2164W        W 3261   5.854   4.893   3.268
 2165W        W 3262   2.459   0.814   2.590
 2166W        W 3263   6.746   2.628   6.981
 2167W        W 3264   7.754   1.383   6.869
 2168W        W 3265   7.678   3.352   3.801
 2169W        W 3266   3.599   4.221   3.202
 2170W        W 3267   4.835   6.475   6.102
 2171W        W 3268   2.079   7.093   2.774
 2172W        W 3269   0.333   0.955   2.018
 2173W        W 3270   6.668   1.202   5.647
 2174W        W 3271   3.288   3.576   0.228
 2175W        W 3272   2.251   4.376   7.539
 2176W        W 3273   4.640   3.769   4.008
 2177W        W 3274   1.216   3.720   3.284
 2178W        W 3275   6.590   5.412   2.234
 2179W        W 3276   6.456   1.651   3.801
 2180W        W 3277   4.944   2.586   4.064
 2181W        W 3278   4.989   1.796   3.641
 2182W        W 3279   3.642   3.473   2.554
 2183W        W 3280   1.544   5.166   0.676
 2184W        W 3281   4.218   7.699   3.800
 2185W        W 3282   0.378   6.253   4.988
 2186W        W 3283   7.775   6.169   2.697
 2187W        W 3284   6.416   1.033   4.864
 2188W        W 3285   0.429   1.961   2.520
 2189W        W 3286   4.657   2.781   7.385
 2190W        W 3287   1.677   1.401   4.370
 2191W        W 3288   7.815   3.313   6.166
 2192W        W 3289   6.936   1.818   5.127
 2193W        W 3290   6.375   5.073   3.197
 2194W        W 3291   6.046   2.979   1.639
 2195W        W 3292   2.842   3.989   1.144
 2196W        W 3293   1.386   7.552   7.050
 2197W        W 3294   3.608   5.888   6.603
 2198W        W 3295   3.419   3.750   6.563
 2199W        W 3296   2.886   6.345   3.040
 2200W        W 3297   2.489   5.551   3.482
 2201W        W 3298   6.005   6.215   4.596
 2202W        W 3299   1.671   1.758   0.733
 2203W        W 3300   4.665   0.310   2.633
 2204W        W 3301   0.728   5.926   4.751
 2205W        W 3302   7.587   2.137   1.851
 2206W        W 3303   1.582   1.811   6.262
 2207W        W 3304   7.780   3.028   2.000
 2208W        W 3305   5.125   4.773   4.623
 2209W        W 3306   6.228   5.542   5.016
 2210W        W 3307   2.889   1.781   2.951
 2211W        W 3308   6.794   5.913   0.044
 2212W        W 3309   3.983   2.134   7.231
 2213W        W 3310   4.167   2.570   2.006
 2214W        W 3311   6.396   3.310   4.315
 2215W        W 3312   4.122   0.905   3.715
 2216W        W 3313   6.085   6.156   1.349
 2217W        W 3314   3.280   5.508   2.105
 2218W        W 3315   2.648   4.766   7.577
 2219W        W 3316   1.845   4.741   3.263
 2220W        W 3317   7.701   6.138   2.143
 2221W        W 3318   5.475   5.899   7.382
 2222W        W 3319   4.757   3.484   4.378
 2223W        W 3320   0.737   3.278   4.419
 2224W        W 3321   2.713   1.525   3.347
 2225W        W 3322   6.111   6.953   5.798
 2226W        W 3323   4.017   1.925   0.666
 2227W        W 3324   2.654   5.614   5.578
 2228W        W 3325   0.277   2.676   4.247
 2229W        W 3326   1.253   7.497   6.562
 2230W        W 3327   2.128   1.851   0.100
 2231W        W 3328   0.079   3.171   7.051
 2232W        W 3329   2.124   1.533   0.523
 2233W        W 3330   1.473   0.910   7.377
 2234W        W 3331   7.246   2.710   7.094
 2235W        W 3332   2.497   2.480   7.671
 2236W        W 3333   0.382   2.418   2.772
 2237W        W 3334   7.149   4.594   1.848
 2238W        W 3335   7.420   6.188   3.252
 2239W        W 3336   2.344   5.361   3.023
 2240W        W 3337   5.416   0.299   1.415
 2241W        W 3338   6.664   1.625   4.260
 2242W        W 3339   6.093   2.588   7.528
 2243W        W 3340   0.735   2.176   3.923
 2244W        W 3341   2.472   4.007   7.906
 2245W        W 3342   0.124   0.319   5.971
 2246W        W 3343   3.785   5.977   1.942
 2247W        W 3344   6.416   1.162   0.953
 2248W        W 3345   0.616   5.456   4.477
 2249W        W 3346   4.770   0.497   1.006
 2250W        W 3347   6.089   6.457   7.037
 2251W        W 3348   4.948   4.407   4.291
 2252W        W 3349   0.982   5.379   3.104
 2253W        W 3350   1.874   6.790   5.058
 2254W        W 3351   5.809   3.002   6.001
 2255W        W 3352   5.939   0.068   0.571
 2256W        W 3353   5.789   1.072   3.986
 2257W        W 3354   1.422   7.697   1.736
 2258W        W 3355   2.339   1.238   5.069
 2259W        W 3356   2.571   6.662   5.562
 2260W        W 3357   0.562   5.079   2.993
 2261W        W 3358   0.048   2.331   1.604
 2262W        W 3359   5.876   3.898   5.409
 2263W        W 3360   6.328   3.468   2.389
 2264W        W 3361   7.739   4.039   4.773
 2265W        W 3362   7.054   3.440   6.324
 2266W        W 3363   0.449   6.542   6.282
 2267W        W 3364   3.318   0.495   0.563
 2268W        W 3365   1.876   1.648   5.698
 2269W        W 3366   6.973   7.115   6.179
 2270W        W 3367   0.422   0.924   4.851
 2271W        W 3368   3.531   5.749   1.316
 2272W        W 3369   5.920   3.782   2.504
 2273W        W 3370   4.475   6.827   5.437
 2274W        W 3371   1.503   1.777   7.208
 2275W        W 3372   6.714   0.337   0.696
 2276W        W 3373   3.563   3.407   1.516
 2277W        W 3374   0.611   1.831   6.543
 2278W        W 3375   6.870   7.807   7.817
 2279W        W 3376   1.387   1.882   1.261
 2280W        W 3377   1.723   7.499   2.662
 2281W        W 3378   5.693   3.337   6.945
 2282W        W 3379   1.849   1.647   2.752
 2283W        W 3380   4.471   3.153   5.026
 2284W        W 3381   0.105   3.608   2.334
 2285W        W 3382   0.006   4.725   1.240
 2286W        W 3383   5.667   1.540   7.806
 2287W        W 3384   5.573   7.132   2.179
 2288W        W 3385   3.560   7.734   1.169
 2289W        W 3386   7.490   5.391   5.845
 2290W        W 3387   6.955   5.023   1.962
 2291W        W 3388   2.977   3.056   5.062
 2292W        W 3389   0.345   7.358   4.519
 2293W        W 3390   4.143   5.910   4.855
 2294W        W 3391   6.805   5.598   0.408
 2295W        W 3392   7.418   0.932   6.603
 2296W        W 3393   6.976   0.385   5.312
 2297W        W 3394   7.733   5.711   0.834
 2298W        W 3395   2.811   0.996   3.451
 2299W        W 3396   0.812   1.661   2.568
 2300W        W 3397   4.363   5.885   3.957
 2301W        W 3398   3.529   3.205   7.190
 2302W        W 3399   4.083   5.937   0.694
 2303W        W 3400   4.376   6.682   0.408
 2304W        W 3401   1.649   6.723   0.546
 2305W        W 3402   3.604   2.147   6.891
 2306W        W 3403   1.018   7.369   0.304
 2307W        W 3404   0.497   7.269   5.866
 2308W        W 3405   4.168   1.601   1.884
 2309W        W 3406   1.307   0.519   7.608
 2310W        W 3407   3.632   4.877   5.559
 2311W        W 3408   1.813   1.007   5.984
 2312W        W 3409   7.448   2.473   3.769
 2313W        W 3410   3.027   5.059   0.292
 2314W        W 3411   5.255   0.737   2.779
 2315W        W 3412   1.573   6.450   1.006
 2316W        W 3413   5.969   5.424   0.189
 2317W        W 3414   2.864   7.593   2.671
 2318W        W 3415   2.968   3.367   1.743
 2319W        W 3416   5.937   4.965   0.338
 2320W        W 3417   0.337   0.353   1.144
 2321W        W 3418   0.361   1.744   7.038
 2322W        W 3419   5.133   6.178   1.843
 2323W        W 3420   4.977   0.911   0.710
 2324W        W 3421   6.980   4.215   0.385
 2325W        W 3422   6.265   4.616   0.497
 2326W        W 3423   0.693   2.947   6.170
 2327W        W 3424   5.365   5.581   1.020
 2328W        W 3425   0.565   5.424   2.066
 2329W        W 3426   0.652   7.721   6.337
 2330W        W 3427   6.424   0.415   7.258
 2331W        W 3428   3.671   0.622   3.031
 2332W        W 3429   2.970   3.943   0.026
 2333W        W 3430   1.914   5.865   0.026
 2334W        W 3431   7.019   2.481   5.075
 2335W        W 3432   5.348   3.596   5.300
 2336W        W 3433   2.742   3.623   7.659
 2337W        W 3434   2.320   0.459   7.355
 2338W        W 3435   4.994   5.218   1.131
 2339W        W 3436   2.248   3.767   3.332
 2340W        W 3437   5.732   7.474   3.623
 2341W        W 3438   7.351   5.460   0.594
 2342W        W 3439   4.207   2.737   1.044
 2343W        W 3440   3.397   7.189   6.759
 2344W        W 3441   2.364   0.408   5.367
 2345W        W 3442   1.558   7.899   6.714
 2346W        W 3443   4.589   4.633   0.505
 2347W        W 3444   7.105   2.168   5.639
 2348W        W 3445   6.606   0.809   6.475
 2349W        W 3446   3.922   1.346   3.645
 2350W        W 3447   7.095   3.638   1.883
 2351W        W 3448   3.593   1.170   1.919
 2352W        W 3449   2.097   5.184   6.334
 2353W        W 3450   1.702   3.344   5.098
 2354W        W 3451   5.229   7.800   4.676
 2355W        W 3452   4.193   1.589   4.560
 2356W        W 3453   4.607   1.358   4.465
 2357W        W 3454   4.005   6.727   5.289
 2358W        W 3455   6.422   1.648   5.957
 2359W        W 3456   0.075   6.754   4.087
 2360W        W 3457   5.718   2.274   3.918
 2361W        W 3458   5.662   4.097   6.666
 2362W        W 3459   1.393   2.884   0.928
 2363W        W 3460   3.058   2.220   2.966
 2364W        W 3461   0.782   4.666   5.703
 2365W        W 3462   5.589   7.199   3.195
 2366W        W 3463   4.046   4.061   1.727
 2367W        W 3464   3.890   2.319   1.078
 2368W        W 3465   5.753   5.306   4.319
 2369W        W 3466   0.509   3.820   0.246
 2370W        W 3467   0.234   1.455   4.714
 2371W        W 3468   4.380   7.188   1.236
 2372W        W 3469   2.671   1.025   0.761
 2373W        W 3470   7.607   1.091   5.214
 2374W        W 3471   1.402   5.197   2.583
 2375W        W 3472   5.702   2.681   2.897
 2376W        W 3473   5.216   4.017   4.122
 2377W        W 3474   0.181   7.594   3.207
 2378W        W 3475   0.159   5.154   6.984
 2379W        W 3476   5.437   1.667   5.133
 2380W        W 3477   1.156   7.763   4.077
 2381W        W 3478   2.675   1.722   1.055
 2382W        W 3479   6.451   5.179   0.423
 2383W        W 3480   1.880   6.525   1.425
 2384W        W 3481   0.325   7.020   6.262
 2385W        W 3482   3.630   3.316   3.366
 2386W        W 3483   2.681   5.839   6.015
 2387W        W 3484   1.880   3.799   7.031
 2388W        W 3485   1.731   4.155   1.392
 2389W        W 3486   6.251   4.524   3.358
 2390W        W 3487   2.871   3.415   5.350
 2391W        W 3488   0.198   5.841   5.600
 2392W        W 3489   6.189   2.807   3.303
 2393W        W 3490   2.589   2.262   0.769
 2394W        W 3491   1.427   7.550   7.745
 2395W        W 3492   7.312   3.500   2.806
 2396W        W 3493   2.446   2.640   0.448
 2397W        W 3494   2.270   7.639   3.887
 2398W        W 3495   0.281   1.747   3.311
 2399W        W 3496   3.305   6.341   6.872
 2400W        W 3497   5.276   7.496   3.361
 2401W        W 3498   6.428   5.386   6.414
 2402W        W 3499   4.001   7.482   5.566
 2403W        W 3500   1.161   0.759   2.502
 2404W        W 3501   4.167   6.508   5.791
 2405W        W 3502   0.785   0.665   6.697
 2406W        W 3503   1.960   1.695   1.705
 2407W        W 3504   7.498   5.787   5.313
 2408W        W 3505   3.669   1.598   1.698
 2409W        W 3506   6.566   6.957   1.403
 2410W        W 3507   5.279   4.300   5.811
 2411W        W 3508   2.570   5.866   3.061
 2412W        W 3509   5.530   4.333   4.443
 2413W        W 3510   1.692   2.810   0.502
 2414W        W 3511   3.939   6.346   6.518
 2415W        W 3512   5.311   5.943   1.339
 2416W        W 3513   4.580   5.062   2.598
 2417W        W 3514   4.269   3.752   4.336
 2418W        W 3515   2.388   1.718   5.486
 2419W        W 3516   4.038   4.363   2.595
 2420W        W 3517   2.507   5.349   1.600
 2421W        W 3518   4.386   1.266   6.179
 2422W        W 3519   6.120   0.530   5.931
 2423W        W 3520   2.690   0.122   7.272
 2424W        W 3521   5.972   0.220   7.443
 2425W        W 3522   7.751   4.845   6.838
 2426W        W 3523   2.852   5.828   2.154
 2427W        W 3524   1.063   1.896   1.708
 2428W        W 3525   2.323   3.788   5.739
 2429W        W 3526   7.847   6.382   4.938
 2430W        W 3527   7.272   5.695   3.401
 2431W        W 3528   1.751   3.885   6.434
 2432W        W 3529   6.971   1.765   6.738
 2433W        W 3530   3.514   5.623   2.727
 2434W        W 3531   7.586   2.940   2.819
 2435W        W 3532   2.941   3.943   5.629
 2436W        W 3533   6.937   2.368   2.131
 2437W        W 3534   2.582   6.225   0.985
 2438W        W 3535   5.544   1.766   3.837
 2439W        W 3536   6.619   1.096   7.711
 2440W        W 3537   2.931   3.060   2.293
 2441W        W 3538   1.123   7.188   4.267
 2442W        W 3539   2.894   2.756   0.642
 2443W        W 3540   4.837   1.539   3.198
 2444W        W 3541   6.963   6.473   7.093
 2445W        W 3542   4.966   7.599   3.900
 2446W        W 3543   2.811   7.005   5.059
 2447W        W 3544   0.876   7.198   7.053
 2448W        W 3545   5.157   6.276   1.024
 2449W        W 3546   6.893   5.071   5.193
 2450W        W 3547   7.417   4.170   5.291
 2451W        W 3548   6.913   4.042   7.070
 2452W        W 3549   7.155   6.183   7.506
 2453W        W 3550   4.672   6.359   0.959
 2454W        W 3551   4.944   0.346   4.545
 2455W        W 3552   7.732   1.634   1.085
 2456W        W 3553   3.535   5.832   7.183
 2457W        W 3554   2.436   1.738   1.533
 2458W        W 3555   6.609   2.451   5.908
 2459W        W 3556   0.387   3.370   7.539
 2460W        W 3557   4.436   4.952   4.700
 2461W        W 3558   1.404   2.020   2.185
 2462W        W 3559   5.132   2.349   6.064
 2463W        W 3560   2.704   7.130   1.074
 2464W        W 3561   0.081   4.084   7.220
 2465W        W 3562   2.168   1.323   7.575
 2466W        W 3563   1.284   0.581   5.247
 2467W        W 3564   3.938   2.545   4.599
 2468W        W 3565   1.451   5.430   3.326
 2469W        W 3566   6.564   4.721   1.683
 2470W        W 3567   3.305   6.248   3.908
 2471W        W 3568   5.047   1.882   4.796
 2472W        W 3569   7.404   4.451   6.934
 2473W        W 3570   2.725   4.810   0.696
 2474W        W 3571   7.445   5.691   7.374
 2475W        W 3572   1.779   5.837   7.500
 2476W        W 3573   5.602   1.385   0.253
 2477W        W 3574   5.429   3.434   7.437
 2478W        W 3575   4.773   4.473   2.067
 2479W        W 3576   0.097   5.353   7.504
 2480W        W 3577   6.928   6.967   5.344
 2481W        W 3578   1.612   1.833   0.224
 2482W        W 3579   4.544   4.298   2.798
 2483W        W 3580   3.662   7.024   7.143
 2484W        W 3581   1.968   1.488   6.143
 2485W        W 3582   3.397   2.205   7.298
 2486W        W 3583   2.638   5.580   2.656
 2487W        W 3584   6.586   7.082   1.879
 2488W        W 3585   2.348   4.055   1.148
 2489W        W 3586   0.843   4.232   3.082
 2490W        W 3587   0.508   2.250   4.451
 2491W        W 3588   6.508   3.033   1.689
 2492W        W 3589   5.181   0.446   6.438
 2493W        W 3590   4.795   2.756   5.034
 2494W        W 3591   3.099   7.176   5.902
 2495W        W 3592   5.938   5.882   3.728
 2496W        W 3593   2.627   2.178   0.225
 2497W        W 3594   1.843   3.847   5.953
 2498W        W 3595   1.382   2.455   5.771
 2499W        W 3596   5.668   0.645   2.311
 2500W        W 3597   7.350   7.728   2.054
 2501W        W 3598   1.239   2.793   6.385
 2502W        W 3599   4.636   2.873   3.803
 2503W        W 3600   6.603   2.841   0.006
 2504W        W 3601   0.430   5.011   7.394
 2505W        W 3602   0.116   2.283   0.522
 2506W        W 3603   0.863   5.963   2.829
 2507W        W 3604   3.848   3.998   2.857
 2508W        W 3605   3.340   2.351   1.299
 2509W        W 3606   6.099   2.473   1.796
 2510W        W 3607   7.255   5.264   7.623
 2511W        W 3608   5.202   0.037   2.373
 2512W        W 3609   7.401   2.665   2.003
 2513W        W 3610   4.008   3.318   0.342
 2514W        W 3611   0.901   0.212   2.792
 2515W        W 3612   3.132   4.363   5.842
 2516W        W 3613   0.499   4.755   1.322
 2517W        W 3614   0.352   3.961   6.317
 2518W        W 3615   4.134   6.265   2.040
 2519W        W 3616   4.965   1.280   1.954
 2520W        W 3617   5.671   5.060   2.273
 2521W        W 3618   4.417   5.805   3.064
 2522W        W 3619   0.752   5.058   0.935
 2523W        W 3620   3.207   2.276   4.889
 2524W        W 3621   7.356   5.329   4.073
 2525W        W 3622   5.206   5.593   5.697
 2526W        W 3623   0.825   0.879   2.137
 2527W        W 3624   3.461   1.513   3.831
 2528W        W 3625   7.386   1.230   2.345
 2529W        W 3626   4.391   5.286   2.990
 2530W        W 3627   0.189   2.819   5.303
 2531W        W 3628   2.350   6.068   4.704
 2532W        W 3629   1.185   6.849   3.728
 2533W        W 3630   4.809   7.666   4.916
 2534W        W 3631   1.055   2.595   4.830
 2535W        W 3632   1.461   1.022   3.999
 2536W        W 3633   3.793   7.193   5.104
 2537W        W 3634   1.038   2.119   2.606
 2538W        W 3635   1.083   5.656   5.157
 2539W        W 3636   2.196   0.491   2.292
 2540W        W 3637   3.878   4.063   2.239
 2541W        W 3638   6.480   6.745   3.036
 2542W        W 3639   0.762   6.766   6.653
 2543W        W 3640   7.490   3.208   7.014
 2544W        W 3641   5.611   6.297   3.644
 2545W        W 3642   4.681   5.141   7.481
 2546W        W 3643   6.710   6.103   0.598
 2547W        W 3644   4.766   5.849   5.820
 2548W        W 3645   1.903   0.933   3.265
 2549W        W 3646   6.676   2.153   7.067
 2550W        W 3647   0.618   7.271   2.359
 2551W        W 3648   2.197   2.656   1.953
 2552W        W 3649   6.139   4.093   3.673
 2553W        W 3650   7.397   1.834   5.380
 2554W        W 3651   5.077   6.977   7.837
 2555W        W 3652   0.097   1.645   2.686
 2556W        W 3653   6.924   3.067   7.126
 2557W        W 3654   7.252   4.129   4.787
 2558W        W 3655   6.126   7.167   3.521
 2559W        W 3656   3.113   4.473   1.188
 2560W        W 3657   1.579   4.825   6.908
 2561W        W 3658   0.923   3.950   6.474
 2562W        W 3659   6.915   2.815   1.792
 2563W        W 3660   2.529   0.223   1.072
 2564W        W 3661   1.892   1.084   4.711
 2565W        W 3662   2.588   6.705   3.512
 2566W        W 3663   4.226   4.744   6.801
 2567W        W 3664   6.264   4.465   6.034
 2568W        W 3665   6.873   1.063   0.166
 2569W        W 3666   1.471   7.468   0.395
 2570W        W 3667   5.913   3.291   4.130
 2571W        W 3668   0.900   0.799   4.854
 2572W        W 3669   4.417   7.592   1.710
 2573W        W 3670   3.628   7.147   7.756
 2574W        W 3671   4.921   4.007   5.106
 2575W        W 3672   0.275   5.333   4.146
 2576W        W 3673   2.027   1.735   7.303
 2577W        W 3674   6.999   5.985   7.067
 2578W        W 3675   1.845   6.662   7.885
 2579W        W 3676   1.938   6.318   0.345
 2580W        W 3677   3.143   5.886   6.904
 2581W        W 3678   3.971   3.809   6.387
 2582W        W 3679   6.866   6.457   0.176
 2583W        W 3680   2.774   0.661   1.141
 2584W        W 3681   1.544   1.318   6.401
 2585W        W 3682   5.895   2.844   5.518
 2586W        W 3683   4.647   1.710   2.690
 2587W        W 3684   1.334   1.755   3.481
 2588W        W 3685   7.032   0.145   7.198
 2589W        W 3686   5.015   4.413   1.647
 2590W        W 3687   2.377   7.658   3.376
 2591W        W 3688   6.726   5.555   2.871
 2592W        W 3689   4.227   7.814   2.319
 2593W        W 3690   3.500   6.059   0.857
 2594W        W 3691   0.531   2.883   2.695
 2595W        W 3692   2.778   1.518   2.149
 2596W        W 3693   3.112   5.929   0.543
 2597W        W 3694   3.198   1.667   5.606
 2598W        W 3695   1.257   7.387   3.048
 2599W        W 3696   4.750   6.637   7.774
 2600W        W 3697   0.682   6.778   0.893
 2601W        W 3698   4.266   1.732   7.505
 2602W        W 3699   3.093   5.717   6.377
 2603W        W 3700   1.941   2.051   5.285
 2604W        W 3701   3.022   2.365   1.678
 2605W        W 3702   1.236   2.223   0.976
 2606W        W 3703   0.268   6.081   1.350
 2607W        W 3704   7.427   2.251   1.110
 2608W        W 3705   4.780   2.316   4.770
 2609W        W 3706   3.384   0.432   5.697
 2610W        W 3707   0.300   2.243   2.072
 2611W        W 3708   7.054   2.484   6.316
 2612W        W 3709   5.241   7.376   6.419
 2613W        W 3710   7.014   4.872   5.627
 2614W        W 3711   7.304   7.566   5.508
 2615W        W 3712   5.210   6.529   3.447
 2616W        W 3713   2.503   3.328   4.440
 2617W        W 3714   3.177   7.439   0.985
 2618W        W 3715   4.221   4.088   4.778
 2619W        W 3716   5.496   6.863   5.721
 2620W        W 3717   1.265   6.610   6.551
 2621W        W 3718   2.670   1.308   1.681
 2622W        W 3719   2.553   2.281   1.779
 2623W        W 3720   7.995   4.407   0.012
 2624W        W 3721   1.432   6.112   2.098
 2625W        W 3722   4.557   6.856   5.957
 2626W        W 3723   7.828   4.101   1.053
 2627W        W 3724   5.467   4.236   1.979
 2628W        W 3725   3.857   5.043   7.024
 2629W        W 3726   2.349   3.674   6.796
 2630W        W 3727   7.588   6.424   3.991
 2631W        W 3728   1.563   2.120   1.699
 2632W        W 3729   1.312   3.725   6.570
 2633W        W 3730   0.733   4.972   4.744
 2634W        W 3731   6.109   1.360   2.777
 2635W        W 3732   5.725   5.373   5.069
 2636W        W 3733   4.303   6.481   6.838
 2637W        W 3734   4.388   3.358   3.107
 2638W        W 3735   2.069   5.553   3.951
 2639W        W 3736   1.171   3.364   5.533
 2640W        W 3737   7.431   1.347   7.389
 2641W        W 3738   2.386   1.780   2.018
 2642W        W 3739   3.438   0.478   6.425
 2643W        W 3740   2.782   3.308   4.014
 2644W        W 3741   5.130   1.191   1.112
 2645W        W 3742   6.228   2.505   5.386
 2646W        W 3743   3.890   6.814   6.146
 2647W        W 3744   5.211   7.900   6.282
 2648W        W 3745   5.116   0.269   2.912
 2649W        W 3746   0.544   5.485   5.421
 2650W        W 3747   4.037   6.694   4.344
 2651W        W 3748   3.452   6.677   6.000
 2652W        W 3749   5.389   0.482   1.891
 2653W        W 3750   7.941   6.055   5.316
 2654W        W 3751   2.360   6.946   4.741
 2655W        W 3752   2.878   4.314   0.739
 2656W        W 3753   6.525   1.137   3.432
 2657W        W 3754   1.075   6.621   1.856
 2658W        W 3755   0.939   4.389   0.443
 2659W        W 3756   4.791   4.159   7.194
 2660W        W 3757   5.113   3.858   7.496
 2661W        W 3758   3.123   7.930   0.926
 2662W        W 3759   5.332   0.055   0.376
 2663W        W 3760   4.658   5.974   0.586
 2664W        W 3761   7.689   6.814   0.833
 2665W        W 3762   6.705   0.463   6.850
 2666W        W 3763   7.997   0.619   5.394
 2667W        W 3764   0.723   0.353   7.704
 2668W        W 3765   2.138   5.733   4.407
 2669W        W 3766   6.503   0.341   6.225
 2670W        W 3767   3.811   7.291   6.022
 2671W        W 3768   6.703   6.035   2.894
 2672W        W 3769   5.022   0.460   7.970
 2673W        W 3770   4.594   5.518   1.316
 2674W        W 3771   3.435   4.136   1.398
 2675W        W 3772   3.785   3.769   4.648
 2676W        W 3773   1.686   3.701   0.635
 2677W        W 3774   5.675   0.338   0.975
 2678W        W 3775   3.707   1.731   7.446
 2679W        W 3776   5.799   1.516   6.729
 2680W        W 3777   2.385   2.815   7.083
 2681W        W 3778   1.796   7.496   0.951
 2682W        W 3779   7.297   4.839   4.492
 2683W        W 3780   7.584   6.276   1.574
 2684W        W 3781   2.254   3.860   6.311
 2685W        W 3782   1.839   6.214   2.803
 2686W        W 3783   6.126   0.209   3.525
 2687W        W 3784   5.687   3.382   2.159
 2688W        W 3785   5.477   1.529   4.653
 2689W        W 3786   4.801   5.121   1.656
 2690W        W 3787   4.336   7.618   4.809
 2691W        W 3788   3.910   0.086   4.446
 2692W        W 3789   6.373   4.905   7.174
 2693W        W 3790   1.493   0.848   2.986
 2694W        W 3791   2.774   5.314   6.002
 2695W        W 3792   7.739   7.456   0.833
 2696W        W 3793   0.761   0.940   5.366
 2697W        W 3794   6.432   6.538   1.062
 2698W        W 3795   0.220   1.001   5.359
 2699W        W 3796   0.941   3.356   0.176
 2700W        W 3797   2.667   6.644   2.569
 2701W        W 3798   3.463   1.956   2.433
 2702W        W 3799   1.844   4.701   2.684
 2703W        W 3800   4.635   5.937   0.069
 2704W        W 3801   4.674   3.536   2.702
 2705W        W 3802   0.630   6.261   1.041
 2706W        W 3803   7.152   6.783   3.943
 2707W        W 3804   3.817   5.864   3.572
 2708W        W 3805   2.049   2.758   4.720
 2709W        W 3806   0.722   6.187   4.321
 2710W        W 3807   7.444   6.524   6.521
 2711W        W 3808   2.121   2.068   2.654
 2712W        W 3809   2.067   6.578   5.473
 2713W        W 3810   7.135   2.193   3.270
 2714W        W 3811   2.512   7.486   5.134
 2715W        W 3812   0.387   2.810   1.919
 2716W        W 3813   7.310   4.114   7.364
 2717W        W 3814   5.206   1.422   7.569
 2718W        W 3815   6.324   0.187   4.276
 2719W        W 3816   1.866   7.262   3.833
 2720W        W 3817   4.173   2.329   6.114
 2721W        W 3818   6.491   6.887   2.316
 2722W        W 3819   7.849   5.118   0.833
 2723W        W 3820   2.445   7.618   5.628
 2724W        W 3821   4.318   3.264   4.015
 2725W        W 3822   6.506   5.397   6.891
 2726W        W 3823   7.929   3.969   3.127
 2727W        W 3824   6.516   0.948   7.197
 2728W        W 3825   2.589   0.126   4.024
 2729W        W 3826   7.194   2.185   2.763
 2730W        W 3827   2.995   7.608   3.578
 2731W        W 3828   0.609   2.654   3.781
 2732W        W 3829   3.265   4.502   4.341
 2733W        W 3830   5.207   5.080   7.280
 2734W        W 3831   3.690   2.010   3.009
 2735W        W 3832   5.853   0.378   1.704
 2736W        W 3833   2.337   2.456   4.426
 2737W        W 3834   4.266   5.567   3.487
 2738W        W 3835   7.176   4.189   5.776
 2739W        W 3836   6.912   6.537   1.504
 2740W        W 3837   3.824   4.257   4.527
 2741W        W 3838   4.083   6.909   0.739
 2742W        W 3839   6.551   6.337   3.385
 2743W        W 3840   4.449   3.025   0.132
 2744W        W 3841   6.007   2.740   4.951
 2745W        W 3842   2.389   6.198   5.755
 2746W        W 3843   7.035   2.623   3.040
 2747W        W 3844   7.060   0.992   6.108
 2748W        W 3845   2.876   2.267   4.482
 2749W        W 3846   7.997   7.211   6.058
 2750W        W 3847   4.297   1.238   7.592
 2751W        W 3848   7.716   4.618   6.419
 2752W        W 3849   0.216   2.031   1.173
 2753W        W 3850   0.617   3.578   1.046
 2754W        W 3851   7.672   3.288   5.198
 2755W        W 3852   3.922   3.847   5.160
 2756W        W 3853   6.164   0.806   7.529
 2757W        W 3854   3.814   1.110   4.758
 2758W        W 3855   7.371   1.735   2.626
 2759W        W 3856   7.463   6.667   4.408
 2760W        W 3857   1.979   2.925   5.196
 2761W        W 3858   5.512   3.226   5.652
 2762W        W 3859   3.567   2.859   4.372
 2763W        W 3860   0.837   1.481   6.899
 2764W        W 3861   4.079   2.097   6.622
 2765W        W 3862   1.239   6.828   0.948
 2766W        W 3863   5.523   0.151   3.237
 2767W        W 3864   3.007   3.151   4.463
 2768W        W 3865   2.301   0.606   3.159
 2769W        W 3866   6.560   1.717   6.454
 2770W        W 3867   5.200   2.707   0.208
 2771W        W 3868   0.317   2.426   7.364
 2772W        W 3869   0.113   2.912   1.570
 2773W        W 3870   6.683   3.322   2.064
 2774W        W 3871   4.895   6.566   0.445
 2775W        W 3872   4.180   1.537   4.027
 2776W        W 3873   0.468   0.338   3.131
 2777W        W 3874   1.134   0.975   3.303
 2778W        W 3875   3.106   0.945   3.996
 2779W        W 3876   6.253   7.750   4.413
 2780W        W 3877   6.458   6.458   7.333
 2781W        W 3878   5.521   0.287   5.946
 2782W        W 3879   1.186   5.948   7.210
 2783W        W 3880   4.661   3.696   6.931
 2784W        W 3881   4.648   5.509   2.021
 2785W        W 3882   3.393   6.711   5.111
 2786W        W 3883   1.514   2.009   6.748
 2787W        W 3884   5.649   6.180   1.642
 2788W        W 3885   0.477   4.680   7.818
 2789W        W 3886   0.556   5.789   2.392
 2790W        W 3887   6.272   7.621   7.019
 2791W        W 3888   4.463   2.393   4.383
 2792W        W 3889   2.908   0.750   2.849
 2793W        W 3890   6.942   4.132   2.518
 2794W        W 3891   6.941   1.260   5.189
 2795W        W 3892   0.193   4.663   2.090
 2796W        W 3893   4.621   4.786   3.974
 2797W        W 3894   7.592   0.064   3.783
 2798W        W 3895   5.298   5.955   6.066
 2799W        W 3896   3.233   1.042   4.825
 2800W        W 3897   0.961   5.005   7.124
 2801W        W 3898   7.381   6.703   1.307
 2802W        W 3899   7.971   4.394   3.352
 2803W        W 3900   7.847   5.814   1.770
 2804W        W 3901   1.339   0.179   6.485
 2805W        W 3902   3.147   5.745   5.887
 2806W        W 3903   1.844   2.214   4.828
 2807W        W 3904   3.966   4.713   7.561
 2808W        W 3905   3.556   5.427   6.785
 2809W        W 3906   3.629   0.469   7.455
 2810W        W 3907   5.346   3.719   1.866
 2811W        W 3908   6.950   4.984   4.108
 2812W        W 3909   7.187   1.433   0.056
 2813W        W 3910   2.957   1.383   7.034
 2814W        W 3911   7.131   6.392   4.615
 2815W        W 3912   6.548   6.166   1.709
 2816W        W 3913   6.677   0.579   0.207
 2817W        W 3914   7.471   6.588   2.948
 2818W        W 3915   6.740   5.774   6.680
 2819W        W 3916   0.741   7.139   2.825
 2820W        W 3917   7.347   5.199   5.365
 2821W        W 3918   6.027   5.222   5.402
 2822W        W 3919   0.199   4.902   2.766
 2823W        W 3920   0.103   1.926   5.540
 2824W        W 3921   3.458   1.292   6.421
 2825W        W 3922   1.753   3.227   0.841
 2826W        W 3923   0.011   0.347   6.489
 2827W        W 3924   5.957   1.783   5.860
 2828W        W 3925   0.038   1.318   7.673
 2829W        W 3926   1.552   3.619   4.057
 2830W        W 3927   3.051   6.778   6.892
 2831W        W 3928   1.999   6.453   4.619
 2832W        W 3929   4.345   6.035   1.101
 2833W        W 3930   5.342   1.582   2.248
 2834W        W 3931   7.672   7.282   0.382
 2835W        W 3932   1.700   0.416   3.184
 2836W        W 3933   2.213   7.194   0.983
 2837W        W 3934   6.255   0.468   0.821
 2838W        W 3935   6.146   2.516   3.667
 2839W        W 3936   5.005   1.973   5.732
 2840W        W 3937   5.793   5.722   6.116
 2841W        W 3938   7.382   5.652   7.936
 2842W        W 3939   4.357   3.115   6.390
 2843W        W 3940   1.294   7.133   2.618
 2844W        W 3941   7.555   5.064   6.251
 2845W        W 3942   5.725   3.392   1.641
 2846W        W 3943   6.843   6.020   6.234
 2847W        W 3944   3.298   2.570   5.788
 2848W        W 3945   4.943   2.315   2.041
 2849W        W 3946   7.351   1.161   3.073
 2850W        W 3947   4.334   2.648   4.820
 2851W        W 3948   3.062   3.244   3.540
 2852W        W 3949   0.854   0.066   3.326
 2853W        W 3950   0.322   1.238   0.690
 2854W        W 3951   7.196   4.701   4.959
 2855W        W 3952   4.532   1.628   5.858
 2856W        W 3953   7.669   7.724   6.275
 2857W        W 3954   6.560   6.379   6.363
 2858W        W 3955   6.456   0.607   3.388
 2859W        W 3956   3.737   2.173   6.263
 2860W        W 3957   0.586   1.288   5.096
 2861W        W 3958   3.339   1.113   0.121
 2862W        W 3959   3.579   7.078   5.626
 2863W        W 3960   1.576   7.372   4.357
 2864W        W 3961   4.395   6.037   6.675
 2865W        W 3962   2.917   0.717   1.827
 2866W        W 3963   7.936   0.045   3.374
 2867W        W 3964   1.687   7.264   1.384
 2868W        W 3965   6.117   7.001   4.924
 2869W        W 3966   4.820   1.380   1.488
 2870W        W 3967   5.654   5.918   6.928
 2871W        W 3968   3.329   4.732   1.585
 2872W        W 3969   5.218   7.600   6.861
 2873W        W 3970   6.414   6.968   6.282
 2874W        W 3971   6.056   3.713   0.443
 2875W        W 3972   2.456   2.126   3.058
 2876W        W 3973   4.535   3.129   1.100
 2877W        W 3974   3.115   7.387   7.729
 2878W        W 3975   1.918   2.978   6.992
 2879W        W 3976   6.150   2.592   5.916
 2880W        W 3977   5.071   7.037   0.369
 2881W        W 3978   1.485   7.108   5.036
 2882W        W 3979   2.879   2.641   1.273
 2883W        W 3980   5.584   6.238   2.162
 2884W        W 3981   3.604   3.791   1.787
 2885W        W 3982   5.474   0.937   0.396
 2886W        W 3983   4.891   3.539   4.947
 2887W        W 3984   4.135   7.007   5.707
 2888W        W 3985   2.626   5.089   2.396
 2889W        W 3986   4.911   2.512   5.450
 2890W        W 3987   5.991   7.197   0.743
 2891W        W 3988   2.566   3.027   0.228
 2892W        W 3989   1.639   2.667   7.350
 2893W        W 3990   1.709   2.541   5.395
 2894W        W 3991   6.757   7.780   4.432
 2895W        W 3992   0.833   4.579   5.175
 2896W        W 3993   0.157   5.371   4.594
 2897W        W 3994   0.620   4.815   3.816
 2898W        W 3995   7.425   1.828   6.828
 2899W        W 3996   3.620   1.601   1.189
 2900W        W 3997   3.005   1.747   0.189
 2901W        W 3998   4.818   4.703   6.672
 2902W        W 3999   6.049   3.731   6.692
 2903W        W 4000   6.252   2.164   6.140
 2904W        W 4001   1.168   2.728   7.465
 2905W        W 4002   2.291   0.105   0.592
 2906W        W 4003   5.591   5.385   7.412
 2907W        W 4004   0.816   2.248   7.328
 2908W        W 4005   6.030   7.377   6.199
 2909W        W 4006   4.826   7.426   5.397
 2910W        W 4007   1.952   6.073   6.014
 2911W        W 4008   3.271   4.436   5.319
 2912W        W 4009   5.992   7.705   1.618
 2913W        W 4010   4.662   3.089   7.772
 2914W        W 4011   6.305   3.372   2.875
 2915W        W 4012   4.055   2.844   4.184
 2916W        W 4013   3.670   7.549   7.346
 2917W        W 4014   3.107   4.155   6.390
 2918W        W 4015   4.697   4.268   4.767
 2919W        W 4016   4.392   3.644   4.943
 2920W        W 4017   2.018   1.156   6.546
 2921W        W 4018   6.581   4.574   5.619
 2922W        W 4019   0.141   1.204   3.687
 2923W        W 4020   2.468   4.585   7.133
 2924W        W 4021   6.267   2.332   7.882
 2925W        W 4022   5.195   6.807   6.129
 2926W        W 4023   1.967   3.374   7.300
 2927W        W 4024   3.565   6.423   2.238
 2928W        W 4025   4.917   6.443   7.328
 2929W        W 4026   0.673   7.302   0.692
 2930W        W 4027   2.490   3.171   5.611
 2931W        W 4028   7.359   0.249   4.208
 2932W        W 4029   6.546   1.892   0.675
 2933W        W 4030   1.656   6.815   3.614
 2934W        W 4031   2.814   5.380   0.765
 2935W        W 4032   1.911   3.441   6.744
 2936W        W 4033   6.840   0.130   1.750
 2937W        W 4034   3.847   1.849   3.887
 2938W        W 4035   1.709   4.198   2.667
 2939W        W 4036   2.627   0.199   2.204
 2940W        W 4037   7.965   4.383   6.936
 2941W        W 4038   4.598   7.895   6.204
 2942W        W 4039   6.237   5.294   4.611
 2943W        W 4040   6.464   1.507   1.426
 2944W        W 4041   0.529   2.351   0.221
 2945W        W 4042   3.222   3.049   1.437
 2946W        W 4043   1.865   7.054   5.545
 2947W        W 4044   1.870   4.466   4.112
 2948W        W 4045   2.052   2.898   0.179
 2949W        W 4046   4.787   4.708   5.009
 2950W        W 4047   0.538   6.621   2.092
 2951W        W 4048   2.206   2.504   5.098
 2952W        W 4049   0.199   2.664   2.385
 2953W        W 4050   2.388   2.894   3.322
 2954W        W 4051   4.762   3.283   6.702
 2955W        W 4052   4.348   6.071   2.605
 2956W        W 4053   2.374   0.800   3.608
 2957W        W 4054   0.866   5.105   7.626
 2958W        W 4055   7.648   3.556   7.534
 2959W        W 4056   4.329   6.924   2.543
 2960W        W 4057   6.581   2.494   1.553
 2961W        W 4058   0.096   2.253   4.014
 2962W        W 4059   4.731   5.343   5.846
 2963W        W 4060   7.460   3.734   4.470
 2964W        W 4061   2.260   6.919   2.093
 2965W        W 4062   1.655   6.398   5.748
 2966W        W 4063   4.495   2.886   6.830
 2967W        W 4064   7.342   1.875   1.439
 2968W        W 4065   6.106   5.019   0.801
 2969W        W 4066   5.124   1.674   4.270
 2970W        W 4067   2.340   2.748   1.443
 2971W        W 4068   4.225   0.833   5.986
 2972W        W 4069   7.116   3.414   2.333
 2973W        W 4070   1.705   6.551   6.245
 2974W        W 4071   3.798   1.987   2.012
 2975W        W 4072   2.484   0.855   1.479
 2976W        W 4073   1.903   4.814   6.494
 2977W        W 4074   1.995   1.598   5.111
 2978W        W 4075   5.116   1.352   2.599
 2979W        W 4076   7.211   6.690   6.082
 2980W        W 4077   7.024   6.258   6.679
 2981W        W 4078   5.457   1.338   7.069
 2982W        W 4079   6.236   3.846   4.679
 2983W        W 4080   0.298   7.556   0.935
 2984W        W 4081   4.997   7.370   2.187
 2985W        W 4082   3.320   5.956   4.833
 2986W        W 4083   5.463   5.398   0.493
 2987W        W 4084   7.820   0.238   1.153
 2988W        W 4085   0.391   1.970   7.560
 2989W        W 4086   6.967   3.881   2.949
 2990W        W 4087   7.328   3.863   2.312
 2991W        W 4088   3.482   7.576   5.630
 2992W        W 4089   0.932   1.406   5.423
 2993W        W 4090   2.476   6.900   6.206
 2994W        W 4091   6.257   4.506   7.463
 2995W        W 4092   2.245   3.002   6.036
 2996W        W 4093   1.736   3.761   4.586
 2997W        W 4094   1.303   6.840   4.637
 2998W        W 4095   7.561   1.375   5.985
 2999W        W 4096   5.838   1.012   6.843
 3000W        W 4097   4.542   6.351   3.727
 3001W        W 4098   0.253   3.344   5.539
 3002W        W 4099   5.395   5.350   4.708
 3003W        W 4100   1.146   1.681   6.469
 3004W        W 4101   7.641   0.391   2.676
 3005W        W 4102   2.032   4.469   1.172
 3006W        W 4103   0.823   2.017   2.145
 3007W        W 4104   6.092   0.274   1.284
 3008W        W 4105   2.240   0.195   2.898
 3009W        W 4106   6.921   1.503   6.044
 3010W        W 4107   2.090   6.952   1.632
 3011W        W 4108   0.868   6.791   2.487
 3012W        W 4109   3.458   7.616   0.611
 3013W        W 4110   6.345   4.669   4.617
 3014W        W 4111   3.035   5.330   1.266
 3015W        W 4112   5.119   0.728   4.881
 3016W        W 4113   3.309   3.119   2.635
 3017W        W 4114   7.962   3.768   6.359
 3018W        W 4115   0.510   7.646   1.389
 3019W        W 4116   5.491   2.630   6.781
 3020W        W 4117   1.843   4.437   7.851
 3021W        W 4118   0.082   3.144   2.636
 3022W        W 4119   6.792   4.912   4.668
 3023W        W 4120   6.795   1.871   3.414
 3024W        W 4121   5.071   3.741   6.542
 3025W        W 4122   2.142   2.488   6.770
 3026W        W 4123   1.977   7.542   3.071
 3027W        W 4124   7.326   6.667   3.432
 3028W        W 4125   4.433   2.152   2.679
 3029W        W 4126   7.477   0.812   1.332
 3030W        W 4127   1.671   5.985   4.610
 3031W        W 4128   3.612   2.999   2.269
 3032W        W 4129   1.716   3.265   0.226
 3033W        W 4130   6.862   1.258   6.570
 3034W        W 4131   3.182   2.071   6.049
 3035W        W 4132   1.807   0.803   4.299
 3036W        W 4133   4.315   4.419   0.137
 3037W        W 4134   7.057   2.002   0.095
 3038W        W 4135   6.481   4.268   0.208
 3039W        W 4136   3.480   3.995   5.478
 3040W        W 4137   4.509   2.980   2.716
 3041W        W 4138   7.290   4.529   1.008
 3042W        W 4139   5.076   2.845   2.800
 3043W        W 4140   2.838   2.910   7.734
 3044W        W 4141   4.730   5.030   2.123
 3045W        W 4142   5.302   4.533   3.096
 3046W        W 4143   5.460   7.517   2.475
 3047W        W 4144   5.535   5.510   2.482
 3048W        W 4145   4.717   5.174   3.466
 3049W        W 4146   7.332   1.354   6.404
 3050W        W 4147   3.270   3.087   4.014
 3051W        W 4148   5.425   1.206   4.254
 3052W        W 4149   7.820   1.633   1.681
 3053W        W 4150   3.135   4.905   0.947
 3054W        W 4151   1.015   7.828   1.460
 3055W        W 4152   1.355   5.842   7.738
 3056W        W 4153   5.179   2.493   0.708
 3057W        W 4154   4.732   0.192   6.578
 3058W        W 4155   6.118   1.947   1.675
 3059W        W 4156   5.865   0.965   1.984
 3060CL-     CL 4157   0.349   1.633   2.100
 3061CL-     CL 4158   6.117   6.459   3.240
 3062CL-     CL 4159   3.987   7.321   3.032
 3063CL-     CL 4160   0.846   5.585   3.603
 3064CL-     CL 4161   5.208   1.841   7.851
 3065CL-     CL 4162   7.406   4.118   1.879
 3066CL-     CL 4163   2.731   4.151   6.901
 3067CL-     CL 4164   1.758   0.699   6.406
 3068CL-     CL 4165   2.356   4.649   0.183
 3069CL-     CL 4166   1.467   5.549   4.738
 3070CL-     CL 4167   4.297   1.466   3.131
 3071CL-     CL 4168   3.950   2.589   7.550
 3072CL-     CL 4169   3.401   7.094   6.261
 3073CL-     CL 4170   5.202   0.039   1.816
 3074CL-     CL 4171   5.567   7.716   0.647
 3075CL-     CL 4172   0.192   7.138   1.280
 3076CL-     CL 4173   1.218   0.494   3.184
 3077CL-     CL 4174   3.822   4.518   1.635
 3078CL-     CL 4175   6.472   4.314   2.496
 3079CL-     CL 4176   2.906   6.379   4.289
 3080CL-     CL 4177   6.536   7.195   0.908
 3081CL-     CL 4178   6.670   0.107   7.514
 3082CL-     CL 4179   5.202   7.213   4.833
 3083CL-     CL 4180   2.600   5.145   3.858
 3084CL-     CL 4181   4.902   7.280   1.376
 3085CL-     CL 4182   5.309   6.489   1.442
 3086CL-     CL 4183   6.462   0.782   4.379
 3087CL-     CL 4184   7.505   0.577   6.032
 3088CL-     CL 4185   4.863   6.071   2.328
 3089CL-     CL 4186   3.163   6.994   1.347
 3090CL-     CL 4187   2.661   4.839   5.864
 3091CL-     CL 4188   0.447   3.259   0.140
 3092CL-     CL 4189   5.669   0.753   6.255
 3093CL-     CL 4190   2.082   3.323   4.749
 3094CL-     CL 4191   5.590   6.386   6.761
 3095CL-     CL 4192   1.832   1.599   6.802
 3096CL-     CL 4193   5.150   3.670   7.039
 3097CL-     CL 4194   5.962   7.482   3.126
 3098CL-     CL 4195   5.358   4.297   3.635
 3099CL-     CL 4196   0.274   4.709   0.782
 3100CL-     CL 4197   7.808   6.537   3.566
 3101CL-     CL 4198   2.526   3.282   7.359
 3102CL-     CL 4199   5.261   0.686   1.193
 3103CL-     CL 4200   5.473   6.391   4.374
 3104CL-     CL 4201   7.425   4.879   2.271
 3105CL-     CL 4202   4.512   0.027   1.725
 3106CL-     CL 4203   6.383   1.554   7.511
 3107CL-     CL 4204   5.787   1.949   5.289
 3108CL-     CL 4205   3.032   2.300   0.911
 3109CL-     CL 4206   3.539   2.936   6.742
 3110CL-     CL 4207   1.239   3.952   2.832
 3111CL-     CL 4208   7.207   7.464   0.255
 3112CL-     CL 4209   5.989   2.246   0.315
 3113CL-     CL 4210   4.674   1.634   4.049
 3114CL-     CL 4211   3.232   3.637   1.184
 3115CL-     CL 4212   5.886   0.027   5.063
 3116CL-     CL 4213   7.083   1.412   3.457
 3117CL-     CL 4214   7.267   2.039   4.888
 3118CL-     CL 4215   1.089   0.951   6.147
 3119CL-     CL 4216   7.252   3.724   3.317
 3120CL-     CL 4217   5.167   2.924   7.698
 3121CL-     CL 4218   7.680   2.976   3.495
 3122CL-     CL 4219   1.899   2.264   4.275
 3123CL-     CL 4220   5.144   0.091   0.880
 3124CL-     CL 4221   7.360   2.670   0.803
 3125CL-     CL 4222   4.836   0.914   2.460
 3126CL-     CL 4223   6.433   1.727   2.370
 3127CL-     CL 4224   2.926   2.115   7.123
 3128CL-     CL 4225   6.106   2.278   6.644
 3129CL-     CL 4226   7.516   3.142   2.407
 3130CL-     CL 4227   5.545   7.827   1.351
 3131CL-     CL 4228   3.425   4.146   7.431
 3132CL-     CL 4229   4.205   2.435   0.133
 3133CL-     CL 4230   6.192   1.503   5.375
 3134CL-     CL 4231   6.054   0.955   2.444
 3135CL-     CL 4232   1.020   6.960   7.857
 3136CL-     CL 4233   3.253   7.249   7.232
 3137CL-     CL 4234   5.504   6.736   7.705
 3138CL-     CL 4235   0.969   1.205   2.800
 3139CL-     CL 4236   4.412   1.606   7.945
 3140CL-     CL 4237   1.755   2.388   2.059
 3141CL-     CL 4238   6.505   4.558   6.465
 3142CL-     CL 4239   1.455   7.857   0.155
 3143CL-     CL 4240   3.829   3.872   5.880
 3144CL-     CL 4241   3.846   3.499   2.137
 3145CL-     CL 4242   4.641   0.832   4.653
 3146CL-     CL 4243   5.536   1.543   0.854
 3147CL-     CL 4244   7.958   3.791   7.836
 3148CL-     CL 4245   0.735   3.389   2.605
 3149CL-     CL 4246   4.924   7.144   5.798
 3150CL-     CL 4247   0.269   3.535   4.534
 3151CL-     CL 4248   2.837   2.853   1.729
 3152CL-     CL 4249   7.077   2.092   3.833
 3153CL-     CL 4250   3.941   3.366   5.051
 3154CL-     CL 4251   4.835   6.747   6.495
 3155CL-     CL 4252   0.201   6.891   4.609
 3156CL-     CL 4253   2.838   6.456   7.571
 3157CL-     CL 4254   2.782   0.521   3.309
 3158CL-     CL 4255   5.569   3.620   3.944
 3159CL-     CL 4256   3.079   5.876   1.077
   8.00000   8.00000   8.00000
