Generated by trjconv : Martini system from ../2_Creating_coordinates/TYR-HIS-TYR_aa.pdb t=   0.00000
  960
    1TYR     BB    1   2.217   4.775   2.727 -0.1534  0.1692 -0.0218
    1TYR    SC1    2   2.303   4.888   3.034  0.0419  0.2067  0.0844
    1TYR    SC2    3   2.335   4.839   3.297 -0.0455  0.3637  0.1259
    1TYR    SC3    4   2.466   5.045   3.181 -0.0022  0.2910  0.0445
    2HIS     BB    5   2.130   4.440   2.766 -0.3811 -0.1210 -0.1104
    2HIS    SC1    6   2.007   4.475   3.045  0.3531 -0.2420  0.0936
    2HIS    SC2    7   1.989   4.517   3.311  0.1912  0.0505  0.0419
    2HIS    SC3    8   1.767   4.462   3.168  0.2495  0.0746 -0.0596
    3TYR     BB    9   2.163   4.285   2.536 -0.1656  0.1208 -0.0540
    3TYR    SC1   10   2.305   4.170   2.327 -0.0772 -0.1831  0.4070
    3TYR    SC2   11   2.522   4.139   2.170 -0.2346  0.3465  0.0512
    3TYR    SC3   12   2.436   3.934   2.324  0.2129 -0.0359 -0.1760
    1TYR     BB   13   2.430   5.196   3.644  0.2797  0.0966 -0.0538
    1TYR    SC1   14   2.142   5.293   3.662  0.1741  0.1702 -0.0785
    1TYR    SC2   15   1.914   5.436   3.639  0.0002 -0.0738  0.0692
    1TYR    SC3   16   2.020   5.388   3.883  0.1850 -0.0041  0.0047
    2HIS     BB   17   2.667   5.295   3.640  0.1128  0.1882 -0.0615
    2HIS    SC1   18   2.745   5.579   3.747 -0.0585  0.0746 -0.0393
    2HIS    SC2   19   2.779   5.847   3.741  0.0482  0.0686  0.1778
    2HIS    SC3   20   2.874   5.703   3.949 -0.0256 -0.1368  0.0731
    3TYR     BB   21   2.950   5.285   3.438  0.2268  0.1636  0.0285
    3TYR    SC1   22   3.199   5.410   3.575  0.1020  0.0717 -0.0439
    3TYR    SC2   23   3.302   5.573   3.764  0.1241 -0.1777  0.1646
    3TYR    SC3   24   3.461   5.474   3.569  0.1153  0.0281  0.0503
    1TYR     BB   25   4.207   6.632   2.046  0.0588  0.0559 -0.3327
    1TYR    SC1   26   4.002   6.855   1.988 -0.0826 -0.0789  0.1384
    1TYR    SC2   27   3.826   6.984   1.829 -0.1895 -0.0606  0.2694
    1TYR    SC3   28   3.941   7.114   2.035 -0.0432 -0.0811  0.2021
    2HIS     BB   29   4.435   6.553   1.807 -0.0132  0.1918  0.1139
    2HIS    SC1   30   4.309   6.427   1.583 -0.0050  0.0558  0.2184
    2HIS    SC2   31   4.088   6.367   1.441  0.0613  0.1811  0.0584
    2HIS    SC3   32   4.281   6.182   1.474  0.0185  0.1320  0.0354
    3TYR     BB   33   4.676   6.558   1.841 -0.0449 -0.0209 -0.0469
    3TYR    SC1   34   4.974   6.508   1.878 -0.0733 -0.0245 -0.0911
    3TYR    SC2   35   5.160   6.520   2.074 -0.0485  0.0931 -0.1213
    3TYR    SC3   36   5.200   6.362   1.859 -0.2522 -0.3496  0.1496
    1TYR     BB   37   6.261   5.197   1.648 -0.4289 -0.0876 -0.1149
    1TYR    SC1   38   6.286   5.486   1.540  0.1087 -0.0436  0.1342
    1TYR    SC2   39   6.063   5.599   1.438  0.1850  0.0515  0.0707
    1TYR    SC3   40   6.281   5.750   1.484  0.2950 -0.0731 -0.0310
    2HIS     BB   41   6.220   4.942   1.757  0.0173 -0.1213 -0.0666
    2HIS    SC1   42   6.406   4.715   1.637  0.0782  0.0374  0.0720
    2HIS    SC2   43   6.651   4.613   1.588  0.0467 -0.0919  0.1759
    2HIS    SC3   44   6.445   4.555   1.423  0.1231  0.1686 -0.0192
    3TYR     BB   45   5.998   4.847   1.912  0.3808  0.0855  0.1462
    3TYR    SC1   46   5.861   4.905   2.185 -0.1340  0.1145  0.0588
    3TYR    SC2   47   5.683   5.018   2.353 -0.2635 -0.1067  0.0757
    3TYR    SC3   48   5.803   4.786   2.420 -0.0921 -0.0447 -0.0098
    1TYR     BB   49   4.456   5.610   1.514 -0.0084 -0.1074 -0.2647
    1TYR    SC1   50   4.419   5.827   1.704 -0.0421 -0.2284 -0.0374
    1TYR    SC2   51   4.345   5.932   1.942 -0.1589 -0.0544 -0.1474
    1TYR    SC3   52   4.548   6.043   1.803 -0.0930 -0.1536 -0.1318
    2HIS     BB   53   4.242   5.521   1.325 -0.1852  0.0313 -0.2171
    2HIS    SC1   54   4.390   5.389   1.046 -0.0679 -0.2144 -0.0522
    2HIS    SC2   55   4.579   5.318   0.867 -0.1602 -0.3877 -0.0837
    2HIS    SC3   56   4.409   5.132   0.964  0.0153 -0.3409  0.3371
    3TYR     BB   57   3.938   5.481   1.302 -0.2811 -0.1218  0.1765
    3TYR    SC1   58   3.911   5.404   0.979  0.2682 -0.4066 -0.0456
    3TYR    SC2   59   4.008   5.282   0.758  0.2586 -0.3742 -0.0677
    3TYR    SC3   60   3.744   5.272   0.812  0.2102 -0.1095 -0.2315
    1TYR     BB   61   3.723   7.252   2.866 -0.1063  0.0726 -0.4330
    1TYR    SC1   62   4.047   7.295   2.887 -0.1589  0.4437 -0.0683
    1TYR    SC2   63   4.276   7.238   2.756 -0.1062  0.3568  0.0589
    1TYR    SC3   64   4.265   7.450   2.923  0.0250  0.1061  0.4006
    2HIS     BB   65   3.629   7.554   2.814  0.2003  0.0804  0.2532
    2HIS    SC1   66   3.873   7.740   2.857  0.2636 -0.3231 -0.2515
    2HIS    SC2   67   4.036   7.895   3.005 -0.2101  0.0337 -0.0717
    2HIS    SC3   68   3.995   7.953   2.745 -0.0900 -0.0310 -0.1061
    3TYR     BB   69   3.536   7.685   2.482 -0.0671  0.0123 -0.1939
    3TYR    SC1   70   3.827   7.533   2.397 -0.1699 -0.0736  0.2277
    3TYR    SC2   71   4.082   7.618   2.368 -0.1897 -0.0913 -0.0189
    3TYR    SC3   72   4.031   7.356   2.411 -0.1799 -0.1582 -0.3727
    1TYR     BB   73   6.112   4.557   2.802  0.0502 -0.1598  0.1345
    1TYR    SC1   74   6.036   4.850   2.898  0.2072  0.1121 -0.1814
    1TYR    SC2   75   5.951   5.092   2.814 -0.0979  0.0630 -0.0334
    1TYR    SC3   76   6.028   5.058   3.070  0.0426  0.0251 -0.0798
    2HIS     BB   77   6.065   4.381   3.063  0.2374  0.2130  0.0173
    2HIS    SC1   78   5.909   4.531   3.269  0.1161  0.0655 -0.1044
    2HIS    SC2   79   5.901   4.767   3.400  0.0698 -0.0075  0.0273
    2HIS    SC3   80   5.682   4.609   3.394  0.1016 -0.0491 -0.0574
    3TYR     BB   81   5.986   4.100   3.068 -0.0589 -0.2029 -0.2242
    3TYR    SC1   82   6.107   3.836   2.908  0.0914  0.2687 -0.4391
    3TYR    SC2   83   6.021   3.618   2.773  0.0803 -0.1571  0.2004
    3TYR    SC3   84   6.284   3.648   2.829  0.1009  0.0777 -0.0017
    1TYR     BB   85   4.990   6.947   1.107 -0.1837 -0.0342  0.2981
    1TYR    SC1   86   5.294   7.013   1.061  0.2904 -0.3856  0.0568
    1TYR    SC2   87   5.516   7.141   1.146  0.1186  0.0014 -0.0453
    1TYR    SC3   88   5.514   6.871   1.127  0.3768 -0.0608  0.5296
    2HIS     BB   89   4.855   7.167   0.863 -0.1210  0.2393 -0.0360
    2HIS    SC1   90   5.001   7.414   0.953 -0.2619 -0.1235  0.0984
    2HIS    SC2   91   5.261   7.480   0.981 -0.2715 -0.0504  0.0201
    2HIS    SC3   92   5.069   7.661   1.037 -0.3095 -0.1346  0.1715
    3TYR     BB   93   4.537   7.008   0.777 -0.0604  0.0114  0.0699
    3TYR    SC1   94   4.424   7.169   0.507  0.0505  0.1034 -0.0862
    3TYR    SC2   95   4.365   7.355   0.321  0.0671  0.2229  0.0262
    3TYR    SC3   96   4.230   7.121   0.325  0.0468  0.2306 -0.1169
    1TYR     BB   97   3.183   4.904   2.188 -0.3568 -0.1169 -0.0571
    1TYR    SC1   98   2.966   4.710   2.064 -0.0401  0.1435  0.0555
    1TYR    SC2   99   2.831   4.480   2.025  0.0075  0.1137  0.0647
    1TYR    SC3  100   2.726   4.714   1.943 -0.1098  0.1066  0.1894
    2HIS     BB  101   3.155   4.879   2.532 -0.0318  0.3025 -0.2358
    2HIS    SC1  102   3.190   5.166   2.563  0.0191  0.1171 -0.2531
    2HIS    SC2  103   3.353   5.378   2.601 -0.0630  0.1119  0.1902
    2HIS    SC3  104   3.085   5.413   2.589 -0.0641  0.0571  0.0340
    3TYR     BB  105   3.093   4.615   2.600  0.0971 -0.0447 -0.2246
    3TYR    SC1  106   3.028   4.346   2.421  0.0161  0.0104 -0.0156
    3TYR    SC2  107   3.108   4.197   2.211  0.1926  0.1417 -0.0444
    3TYR    SC3  108   2.898   4.118   2.361  0.1096  0.0100 -0.2259
    1TYR     BB  109   5.921   5.357   1.987 -0.4258  0.0380 -0.0302
    1TYR    SC1  110   5.955   5.657   1.951 -0.2638  0.0877 -0.2380
    1TYR    SC2  111   6.104   5.880   1.986 -0.0405 -0.0602 -0.2155
    1TYR    SC3  112   5.876   5.846   2.127 -0.1123  0.1808 -0.2676
    2HIS     BB  113   5.708   5.257   1.799 -0.2073 -0.0232  0.0436
    2HIS    SC1  114   5.519   5.035   1.902  0.2471  0.0901 -0.1324
    2HIS    SC2  115   5.477   4.803   2.033  0.3505  0.1741  0.0547
    2HIS    SC3  116   5.493   4.805   1.763 -0.0447  0.0239  0.0228
    3TYR     BB  117   5.745   5.198   1.531 -0.6214  0.1454 -0.2573
    3TYR    SC1  118   5.578   5.064   1.325 -0.0442 -0.1141  0.1904
    3TYR    SC2  119   5.415   4.855   1.278 -0.0362 -0.0586 -0.1072
    3TYR    SC3  120   5.559   4.962   1.076  0.2103  0.0278  0.1075
    1TYR     BB  121   7.234   4.436   3.476 -0.2000  0.3667  0.1437
    1TYR    SC1  122   7.304   4.695   3.523 -0.0796  0.1725  0.0796
    1TYR    SC2  123   7.287   4.965   3.527 -0.2767  0.1602  0.3108
    1TYR    SC3  124   7.514   4.843   3.607 -0.0799  0.2589 -0.0662
    2HIS     BB  125   7.248   4.218   3.385  0.0348  0.4384  0.0004
    2HIS    SC1  126   7.053   3.969   3.362  0.0634 -0.1282 -0.1923
    2HIS    SC2  127   6.859   3.865   3.517  0.0136  0.0733 -0.1157
    2HIS    SC3  128   7.030   3.701   3.387  0.0816 -0.1006  0.1818
    3TYR     BB  129   7.533   3.970   3.285 -0.0966  0.0507  0.1839
    3TYR    SC1  130   7.723   4.218   3.362  0.1943  0.0876 -0.1615
    3TYR    SC2  131   7.889   4.367   3.514  0.1634  0.0356 -0.0756
    3TYR    SC3  132   7.734   4.485   3.327  0.2373  0.0941 -0.1005
    1TYR     BB  133   2.805   4.208   3.563  0.2854 -0.0460 -0.1901
    1TYR    SC1  134   2.582   4.219   3.331 -0.2119 -0.1805 -0.0329
    1TYR    SC2  135   2.407   4.406   3.244 -0.1266 -0.0832  0.0027
    1TYR    SC3  136   2.385   4.151   3.159 -0.3208 -0.0848  0.0516
    2HIS     BB  137   2.657   4.088   3.833  0.0957  0.0222  0.1485
    2HIS    SC1  138   2.522   3.810   3.945 -0.0883 -0.1466 -0.2668
    2HIS    SC2  139   2.627   3.569   4.007  0.3027  0.1443  0.3187
    2HIS    SC3  140   2.524   3.725   4.201 -0.0813  0.4030 -0.0692
    3TYR     BB  141   2.480   4.300   4.081 -0.0270  0.3021  0.0525
    3TYR    SC1  142   2.242   4.124   4.196  0.0938 -0.0483 -0.3147
    3TYR    SC2  143   2.127   3.986   4.398  0.3344  0.1087 -0.0604
    3TYR    SC3  144   2.121   3.888   4.147 -0.1096 -0.0145 -0.0128
    1TYR     BB  145   3.120   4.092   2.870  0.1333 -0.0375 -0.1005
    1TYR    SC1  146   3.098   4.337   3.085  0.2237 -0.1626 -0.0422
    1TYR    SC2  147   3.160   4.443   3.325 -0.3486 -0.1061  0.0990
    1TYR    SC3  148   3.246   4.562   3.099 -0.0738  0.0263  0.2670
    2HIS     BB  149   3.320   4.104   2.709  0.2398 -0.1860  0.0811
    2HIS    SC1  150   3.566   4.309   2.829 -0.0467  0.2372 -0.1383
    2HIS    SC2  151   3.706   4.410   3.037  0.0344 -0.0755 -0.0339
    2HIS    SC3  152   3.808   4.421   2.787  0.1097 -0.0368 -0.0018
    3TYR     BB  153   3.410   3.945   2.449 -0.0509 -0.1932  0.0681
    3TYR    SC1  154   3.503   3.692   2.386  0.0874  0.0600  0.1693
    3TYR    SC2  155   3.643   3.473   2.312 -0.0941 -0.0803  0.2337
    3TYR    SC3  156   3.385   3.449   2.389 -0.3485  0.2339 -0.4279
    1TYR     BB  157   1.857   4.582   2.297 -0.0893 -0.1273 -0.0041
    1TYR    SC1  158   2.067   4.799   2.209  0.0869 -0.1499  0.1929
    1TYR    SC2  159   2.254   4.926   2.061 -0.3467  0.1901 -0.0976
    1TYR    SC3  160   2.208   5.003   2.316  0.0877 -0.0902  0.0798
    2HIS     BB  161   1.644   4.663   2.039  0.2310 -0.1931  0.2337
    2HIS    SC1  162   1.795   4.801   1.818  0.2173  0.0502  0.1567
    2HIS    SC2  163   1.959   4.935   1.650  0.0980 -0.1512 -0.1319
    2HIS    SC3  164   1.694   4.986   1.649  0.1182 -0.0135  0.1451
    3TYR     BB  165   1.335   4.593   2.085  0.1086 -0.0336  0.0677
    3TYR    SC1  166   1.245   4.889   2.209  0.1033  0.0394 -0.1772
    3TYR    SC2  167   1.041   5.035   2.307  0.1482  0.0459 -0.0925
    3TYR    SC3  168   1.284   5.148   2.273  0.2087 -0.0330  0.0648
    1TYR     BB  169   6.857   4.735   3.385  0.0825  0.0120  0.1028
    1TYR    SC1  170   6.855   4.868   3.596  0.4121 -0.1765  0.5592
    1TYR    SC2  171   6.659   4.932   3.770 -0.0577  0.0935 -0.0273
    1TYR    SC3  172   6.849   5.114   3.707  0.2219 -0.0661  0.3156
    2HIS     BB  173   7.005   4.888   3.056  0.0658  0.0971  0.1102
    2HIS    SC1  174   7.022   5.144   3.188  0.1482 -0.0708  0.1755
    2HIS    SC2  175   6.882   5.343   3.306  0.0767  0.1937 -0.3184
    2HIS    SC3  176   7.152   5.355   3.295  0.1045  0.0379  0.0189
    3TYR     BB  177   6.927   4.856   2.721 -0.0338 -0.0407 -0.2913
    3TYR    SC1  178   7.209   4.774   2.599  0.0259 -0.4415  0.2191
    3TYR    SC2  179   7.468   4.836   2.645  0.0235  0.0223 -0.2745
    3TYR    SC3  180   7.400   4.697   2.423 -0.1401 -0.3205 -0.0208
    1TYR     BB  181   2.077   4.775   3.740  0.1094  0.0393  0.0678
    1TYR    SC1  182   1.853   4.940   3.788  0.0432 -0.1039 -0.0283
    1TYR    SC2  183   1.642   5.107   3.792  0.1230 -0.0027 -0.0011
    1TYR    SC3  184   1.746   5.016   4.024 -0.0106 -0.2077 -0.0182
    2HIS     BB  185   2.067   4.481   3.820  0.0335 -0.1475 -0.2105
    2HIS    SC1  186   1.966   4.469   4.106 -0.1307  0.0558 -0.1906
    2HIS    SC2  187   1.793   4.603   4.264  0.3363 -0.1179  0.5258
    2HIS    SC3  188   1.799   4.333   4.268  0.0704 -0.1576 -0.1557
    3TYR     BB  189   2.215   4.215   3.681 -0.2459  0.0476  0.1287
    3TYR    SC1  190   2.017   4.063   3.458  0.0178  0.1218  0.1688
    3TYR    SC2  191   1.922   3.817   3.399 -0.1921  0.1892  0.2175
    3TYR    SC3  192   1.760   4.033   3.383 -0.1092  0.2793  0.5144
    1TYR     BB  193   3.396   4.121   4.486 -0.0343 -0.0396  0.2140
    1TYR    SC1  194   3.101   4.014   4.349  0.2257 -0.3204 -0.0615
    1TYR    SC2  195   2.958   3.904   4.148 -0.1974  0.3440 -0.1657
    1TYR    SC3  196   2.831   4.020   4.356  0.2220  0.3473  0.1038
    2HIS     BB  197   3.513   4.371   4.583  0.0033 -0.1872 -0.3821
    2HIS    SC1  198   3.480   4.478   4.850  0.5241  0.3479 -0.0038
    2HIS    SC2  199   3.261   4.526   5.001 -0.0001 -0.3884 -0.4452
    2HIS    SC3  200   3.499   4.477   5.120 -0.2274 -0.2829  0.0915
    3TYR     BB  201   3.808   4.417   4.495  0.0291 -0.0855  0.3000
    3TYR    SC1  202   3.984   4.624   4.668  0.1399  0.0095 -0.0810
    3TYR    SC2  203   4.087   4.864   4.736  0.0684  0.0644 -0.1647
    3TYR    SC3  204   3.906   4.745   4.896  0.1052  0.0654 -0.1223
    1TYR     BB  205   5.502   4.213   2.984  0.1164  0.0725  0.2334
    1TYR    SC1  206   5.537   4.488   2.976 -0.2917 -0.1788 -0.1117
    1TYR    SC2  207   5.452   4.742   3.005 -0.0598 -0.0876 -0.1984
    1TYR    SC3  208   5.623   4.679   2.806  0.3206 -0.1972  0.1464
    2HIS     BB  209   5.464   4.098   3.270 -0.2146  0.0732 -0.2138
    2HIS    SC1  210   5.306   3.854   3.208 -0.1765 -0.0012  0.1355
    2HIS    SC2  211   5.244   3.649   3.044  0.4908 -0.0825 -0.0508
    2HIS    SC3  212   5.192   3.630   3.308 -0.3727 -0.0510 -0.1828
    3TYR     BB  213   5.533   4.117   3.497 -0.1354 -0.1685 -0.1817
    3TYR    SC1  214   5.630   3.852   3.655 -0.1225  0.1421  0.0356
    3TYR    SC2  215   5.733   3.665   3.822  0.3314  0.2578 -0.0966
    3TYR    SC3  216   5.648   3.594   3.576 -0.3394  0.0866  0.1570
    1TYR     BB  217   3.173   5.833   2.419 -0.0534 -0.0861 -0.2972
    1TYR    SC1  218   3.200   5.610   2.202  0.3000 -0.0689  0.0838
    1TYR    SC2  219   3.336   5.385   2.138  0.2079  0.0860 -0.8324
    1TYR    SC3  220   3.072   5.404   2.083 -0.0657  0.0763  0.2082
    2HIS     BB  221   2.894   5.985   2.286 -0.0718  0.2517  0.0998
    2HIS    SC1  222   2.720   6.140   2.466 -0.0421 -0.1794  0.0047
    2HIS    SC2  223   2.486   6.205   2.585  0.1770  0.0629  0.3260
    2HIS    SC3  224   2.672   6.395   2.541  0.1559 -0.0385 -0.3215
    3TYR     BB  225   2.894   5.927   2.021  0.0444  0.1853  0.0884
    3TYR    SC1  226   2.583   5.994   1.916  0.0523  0.0274 -0.3369
    3TYR    SC2  227   2.345   5.937   1.804 -0.2027  0.2138  0.0773
    3TYR    SC3  228   2.431   6.192   1.813 -0.1272  0.1853  0.1877
    1TYR     BB  229   7.297   4.528   3.026 -0.0117 -0.2636  0.1925
    1TYR    SC1  230   7.472   4.756   3.092  0.0491  0.0469 -0.0689
    1TYR    SC2  231   7.688   4.893   3.176  0.3451 -0.0571 -0.5993
    1TYR    SC3  232   7.490   5.021   3.044  0.0148  0.0548 -0.0387
    2HIS     BB  233   7.472   4.348   2.859 -0.0758 -0.2960 -0.1360
    2HIS    SC1  234   7.306   4.096   2.788 -0.2045  0.0808  0.3674
    2HIS    SC2  235   7.139   3.937   2.647 -0.2435  0.3621  0.0820
    2HIS    SC3  236   7.180   3.890   2.910 -0.1935 -0.1577 -0.0051
    3TYR     BB  237   7.752   4.353   2.817  0.0808  0.1157  0.2812
    3TYR    SC1  238   7.965   4.214   2.984 -0.0057 -0.0223 -0.1586
    3TYR    SC2  239   8.126   4.223   3.201 -0.0025  0.2944 -0.1676
    3TYR    SC3  240   8.059   3.985   3.092  0.1344  0.1392  0.0748
    1TYR     BB  241   3.245   6.861   0.814  0.1329 -0.0702  0.1753
    1TYR    SC1  242   2.989   6.975   0.902  0.0825  0.1870  0.1325
    1TYR    SC2  243   2.868   7.173   1.040 -0.1376 -0.1093  0.3841
    1TYR    SC3  244   2.818   6.915   1.102  0.0106 -0.2534 -0.0456
    2HIS     BB  245   3.502   7.039   0.836 -0.0321  0.0395  0.1147
    2HIS    SC1  246   3.353   7.281   0.665 -0.1460 -0.2508 -0.0691
    2HIS    SC2  247   3.216   7.477   0.539 -0.0537 -0.0225  0.1749
    2HIS    SC3  248   3.484   7.495   0.566 -0.0307 -0.2356  0.1122
    3TYR     BB  249   3.724   7.125   0.978 -0.3626  0.0032  0.1450
    3TYR    SC1  250   3.904   7.320   0.804  0.0162 -0.0925  0.0824
    3TYR    SC2  251   4.094   7.426   0.644 -0.0660 -0.0660  0.0016
    3TYR    SC3  252   3.921   7.588   0.774 -0.0737 -0.0929  0.0252
    1TYR     BB  253   2.681   4.222   5.567 -0.0873 -0.4046 -0.2613
    1TYR    SC1  254   2.564   4.021   5.339  0.2215  0.1785  0.1377
    1TYR    SC2  255   2.592   3.811   5.172  0.1293 -0.1158  0.4773
    1TYR    SC3  256   2.412   4.004   5.117  0.2924 -0.0604  0.1036
    2HIS     BB  257   2.998   4.275   5.457 -0.0629  0.1929  0.2811
    2HIS    SC1  258   3.045   4.573   5.435  0.0120 -0.0487  0.0086
    2HIS    SC2  259   2.943   4.808   5.520 -0.0637 -0.1633  0.2447
    2HIS    SC3  260   3.146   4.806   5.342  0.2062  0.0951  0.5349
    3TYR     BB  261   3.057   4.087   5.282 -0.1974 -0.0600 -0.1731
    3TYR    SC1  262   2.919   4.165   4.997 -0.4034  0.3392 -0.0291
    3TYR    SC2  263   2.770   4.024   4.821 -0.1082 -0.1685  0.1004
    3TYR    SC3  264   2.931   4.222   4.733 -0.1288 -0.2657 -0.1697
    1TYR     BB  265   2.545   4.622   3.684  0.0020  0.3422  0.2239
    1TYR    SC1  266   2.748   4.697   3.449  0.2881 -0.2133 -0.0618
    1TYR    SC2  267   2.898   4.870   3.305 -0.1973  0.1924 -0.1131
    1TYR    SC3  268   2.745   4.687   3.179 -0.0279  0.0201 -0.0739
    2HIS     BB  269   2.658   4.814   3.927 -0.1966  0.0961 -0.0253
    2HIS    SC1  270   2.391   4.884   4.087 -0.2665 -0.5399 -0.4350
    2HIS    SC2  271   2.187   5.050   4.147  0.2013  0.0161 -0.2707
    2HIS    SC3  272   2.216   4.818   4.282  0.0826  0.2759  0.2303
    3TYR     BB  273   2.863   4.983   3.979 -0.3405 -0.0889  0.0936
    3TYR    SC1  274   3.004   5.221   4.082  0.1748 -0.1682 -0.1278
    3TYR    SC2  275   3.255   5.314   4.119  0.1921 -0.2105 -0.1387
    3TYR    SC3  276   3.058   5.385   4.289  0.1083  0.2041 -0.3922
    1TYR     BB  277   3.228   5.508   3.083 -0.2475 -0.1458  0.4356
    1TYR    SC1  278   3.223   5.766   3.216 -0.0179  0.2447 -0.0586
    1TYR    SC2  279   3.090   5.831   3.442 -0.0237 -0.1250  0.0527
    1TYR    SC3  280   3.352   5.893   3.416 -0.0493  0.0126  0.1147
    2HIS     BB  281   3.431   5.277   3.072  0.1838 -0.1687 -0.2217
    2HIS    SC1  282   3.693   5.367   2.950 -0.1266 -0.2852 -0.1577
    2HIS    SC2  283   3.956   5.415   2.911 -0.1077  0.0179  0.2603
    2HIS    SC3  284   3.774   5.509   2.734  0.0700 -0.6486 -0.3346
    3TYR     BB  285   3.390   5.043   3.272 -0.0763  0.0901 -0.0297
    3TYR    SC1  286   3.574   4.841   3.389 -0.2910 -0.0986  0.0636
    3TYR    SC2  287   3.775   4.745   3.542 -0.1028  0.0514 -0.0840
    3TYR    SC3  288   3.593   4.576   3.437 -0.0528 -0.0871  0.0483
    1TYR     BB  289   5.780   4.262   2.563  0.1116  0.1816 -0.0301
    1TYR    SC1  290   5.748   3.950   2.626  0.0203 -0.3390  0.2193
    1TYR    SC2  291   5.760   3.737   2.460  0.0421 -0.1132 -0.0790
    1TYR    SC3  292   5.570   3.749   2.651 -0.0484 -0.3327 -0.1520
    2HIS     BB  293   5.663   4.273   2.290 -0.2645 -0.0122  0.1173
    2HIS    SC1  294   5.600   3.998   2.174  0.0273 -0.0590 -0.1689
    2HIS    SC2  295   5.443   3.807   2.067  0.0789 -0.0006 -0.3540
    2HIS    SC3  296   5.631   3.927   1.915  0.2575 -0.0211 -0.1547
    3TYR     BB  297   5.761   4.426   1.989  0.0750  0.0793 -0.0293
    3TYR    SC1  298   5.698   4.358   1.692  0.0867  0.3748  0.1227
    3TYR    SC2  299   5.644   4.195   1.484 -0.0683  0.0978  0.3709
    3TYR    SC3  300   5.520   4.434   1.504  0.0447  0.1864  0.0843
    1TYR     BB  301   3.405   6.757   2.680 -0.1131 -0.0369  0.1174
    1TYR    SC1  302   3.451   6.639   2.375  0.4500  0.2693 -0.0334
    1TYR    SC2  303   3.516   6.783   2.156  0.6676  0.0065 -0.1498
    1TYR    SC3  304   3.655   6.561   2.217  0.2813 -0.2150 -0.0309
    2HIS     BB  305   3.179   6.999   2.490  0.0909 -0.2745  0.0976
    2HIS    SC1  306   2.921   6.883   2.495 -0.1920 -0.2275  0.2075
    2HIS    SC2  307   2.684   6.880   2.364 -0.1099  0.1742  0.0305
    2HIS    SC3  308   2.702   6.993   2.609 -0.1914 -0.2820  0.2622
    3TYR     BB  309   3.481   7.169   2.434 -0.0791 -0.1118 -0.2614
    3TYR    SC1  310   3.488   7.214   2.090 -0.0832  0.1270  0.0825
    3TYR    SC2  311   3.337   7.353   1.914  0.1020  0.0256 -0.1633
    3TYR    SC3  312   3.393   7.092   1.869  0.0731 -0.0296  0.0987
    1TYR     BB  313   7.063   5.003   1.711  0.1285 -0.1179  0.1039
    1TYR    SC1  314   7.152   5.125   1.953 -0.3482 -0.0697  0.2650
    1TYR    SC2  315   7.281   5.130   2.190 -0.0724 -0.0554  0.1200
    1TYR    SC3  316   7.172   5.356   2.091 -0.1584 -0.0541  0.2162
    2HIS     BB  317   7.293   4.849   1.604  0.0379  0.0680 -0.2639
    2HIS    SC1  318   7.541   4.929   1.479  0.2565 -0.1822 -0.0313
    2HIS    SC2  319   7.780   5.053   1.457  0.1510  0.0249 -0.0416
    2HIS    SC3  320   7.668   4.937   1.241  0.3072 -0.2024 -0.0052
    3TYR     BB  321   7.187   4.572   1.489 -0.1120  0.1378 -0.3542
    3TYR    SC1  322   7.343   4.551   1.267  0.0449  0.0689  0.1400
    3TYR    SC2  323   7.325   4.518   0.999 -0.1206  0.1628  0.1379
    3TYR    SC3  324   7.561   4.480   1.124 -0.1193 -0.2411  0.0301
    1TYR     BB  325   3.406   3.639   4.276 -0.0514 -0.1357 -0.1505
    1TYR    SC1  326   3.654   3.560   4.120 -0.1436 -0.1357  0.2752
    1TYR    SC2  327   3.915   3.606   4.174 -0.1248 -0.0069  0.0845
    1TYR    SC3  328   3.846   3.431   3.980 -0.1667  0.2646 -0.1545
    2HIS     BB  329   3.555   3.666   4.605  0.1610 -0.3228  0.0453
    2HIS    SC1  330   3.844   3.815   4.584  0.0199 -0.0265  0.1316
    2HIS    SC2  331   4.068   3.962   4.551 -0.0119  0.0401  0.2084
    2HIS    SC3  332   4.048   3.793   4.760 -0.1014  0.1637  0.3019
    3TYR     BB  333   3.611   3.468   4.807  0.4360  0.1230 -0.0236
    3TYR    SC1  334   3.436   3.474   5.101  0.4156 -0.1812  0.2074
    3TYR    SC2  335   3.241   3.380   5.263  0.1562  0.0977  0.0713
    3TYR    SC3  336   3.320   3.637   5.283  0.0977  0.1459 -0.2611
    1TYR     BB  337   6.423   4.118   3.299 -0.0900  0.3164  0.2907
    1TYR    SC1  338   6.575   3.874   3.215  0.0006 -0.3677 -0.1309
    1TYR    SC2  339   6.759   3.798   3.032  0.2017 -0.2160  0.0018
    1TYR    SC3  340   6.615   3.612   3.166  0.2538 -0.3363 -0.1067
    2HIS     BB  341   6.536   4.312   3.405 -0.1073  0.0981 -0.2918
    2HIS    SC1  342   6.774   4.300   3.626 -0.1758  0.1980 -0.0009
    2HIS    SC2  343   6.923   4.171   3.811 -0.0168 -0.2268 -0.3989
    2HIS    SC3  344   6.884   4.438   3.830 -0.0636 -0.2603  0.2662
    3TYR     BB  345   6.356   4.547   3.510 -0.3085  0.1711 -0.0039
    3TYR    SC1  346   6.352   4.766   3.283  0.0580 -0.0316 -0.1373
    3TYR    SC2  347   6.515   4.978   3.247 -0.0897  0.1093  0.0033
    3TYR    SC3  348   6.476   4.801   3.046  0.5111 -0.1293  0.0718
    1TYR     BB  349   3.740   3.964   2.083 -0.0117 -0.0250 -0.0449
    1TYR    SC1  350   3.931   3.779   1.895  0.5557  0.1624  0.0724
    1TYR    SC2  351   4.074   3.552   1.865  0.4176  0.0911 -0.0636
    1TYR    SC3  352   4.032   3.714   1.653 -0.0447 -0.0986 -0.1321
    2HIS     BB  353   3.891   4.336   2.019  0.3832 -0.0162  0.1072
    2HIS    SC1  354   3.683   4.424   2.245 -0.1632  0.0296 -0.1502
    2HIS    SC2  355   3.589   4.621   2.404  0.1822  0.5019 -0.4944
    2HIS    SC3  356   3.433   4.408   2.345  0.0136  0.3314  0.3899
    3TYR     BB  357   4.216   4.472   2.199 -0.1290  0.0237  0.5970
    3TYR    SC1  358   4.334   4.208   2.117 -0.1941 -0.1477 -0.2430
    3TYR    SC2  359   4.546   4.059   2.042 -0.2001 -0.3457  0.1069
    3TYR    SC3  360   4.298   3.991   1.961 -0.1333 -0.0432 -0.4056
    1TYR     BB  361   7.898   4.405   2.101 -0.1052  0.1895  0.0521
    1TYR    SC1  362   7.634   4.326   2.284  0.3859 -0.2389 -0.1578
    1TYR    SC2  363   7.548   4.112   2.425  0.0782 -0.1336 -0.1774
    1TYR    SC3  364   7.376   4.247   2.266  0.2012  0.2757  0.0211
    2HIS     BB  365   7.868   4.709   1.950  0.0222 -0.1967 -0.1663
    2HIS    SC1  366   8.151   4.866   1.838  0.1906 -0.3403 -0.1491
    2HIS    SC2  367   8.331   4.877   1.637 -0.1571 -0.2736 -0.4712
    2HIS    SC3  368   8.204   5.102   1.718  0.1959 -0.2392  0.0470
    3TYR     BB  369   7.668   4.883   2.009  0.0504 -0.0869 -0.1120
    3TYR    SC1  370   7.661   5.166   1.949 -0.0510  0.0611  0.0925
    3TYR    SC2  371   7.810   5.326   1.791  0.2297 -0.0748  0.2116
    3TYR    SC3  372   7.622   5.433   1.953  0.1198  0.0894 -0.0174
    1TYR     BB  373   7.067   4.069   1.822  0.1973 -0.0603  0.0227
    1TYR    SC1  374   7.184   3.835   1.700  0.1789 -0.1163  0.3037
    1TYR    SC2  375   7.213   3.583   1.793 -0.1082 -0.4596 -0.4346
    1TYR    SC3  376   7.420   3.707   1.672  0.1730 -0.1283  0.3088
    2HIS     BB  377   6.889   4.184   1.490 -0.2721 -0.0179  0.0809
    2HIS    SC1  378   7.176   4.117   1.324 -0.0730  0.0608 -0.2058
    2HIS    SC2  379   7.443   4.094   1.362 -0.0972  0.0175 -0.0505
    2HIS    SC3  380   7.336   4.045   1.119  0.0844  0.4512 -0.2321
    3TYR     BB  381   6.646   4.096   1.513 -0.0699  0.3130 -0.1847
    3TYR    SC1  382   6.330   4.150   1.633  0.0264 -0.1459 -0.0654
    3TYR    SC2  383   6.123   4.321   1.654  0.0894 -0.0979  0.2109
    3TYR    SC3  384   6.078   4.061   1.596 -0.0197 -0.0262 -0.0427
    1TYR     BB  385   4.953   6.035   2.118 -0.1929  0.0290 -0.0378
    1TYR    SC1  386   4.729   6.011   2.310 -0.0494 -0.0160  0.1030
    1TYR    SC2  387   4.462   6.011   2.350 -0.0447  0.1964  0.1486
    1TYR    SC3  388   4.619   5.837   2.484 -0.1350  0.2349  0.3068
    2HIS     BB  389   5.052   5.832   1.943 -0.1333 -0.1947 -0.0266
    2HIS    SC1  390   5.349   5.845   1.791 -0.0933 -0.5631 -0.0901
    2HIS    SC2  391   5.566   5.717   1.694  0.2800 -0.2177  0.2394
    2HIS    SC3  392   5.593   5.960   1.809 -0.3406 -0.0084 -0.0034
    3TYR     BB  393   4.922   5.745   1.641 -0.2710  0.0991  0.1203
    3TYR    SC1  394   5.093   5.868   1.452  0.2886 -0.4243  0.0013
    3TYR    SC2  395   5.158   5.930   1.198  0.0915 -0.2793 -0.0173
    3TYR    SC3  396   5.260   6.074   1.402 -0.2307  0.0124 -0.0514
    1TYR     BB  397   3.453   4.579   4.108 -0.2098 -0.2413 -0.1077
    1TYR    SC1  398   3.310   4.780   3.888 -0.0215 -0.1564  0.0510
    1TYR    SC2  399   3.264   5.000   3.737 -0.2813 -0.3177 -0.1147
    1TYR    SC3  400   3.164   4.761   3.662  0.1521 -0.5364 -0.0391
    2HIS     BB  401   3.668   4.497   3.953 -0.1348  0.1485 -0.0627
    2HIS    SC1  402   3.783   4.245   4.031  0.0018 -0.0863 -0.1377
    2HIS    SC2  403   3.796   4.019   4.179 -0.0150 -0.1600 -0.2468
    2HIS    SC3  404   4.018   4.168   4.140 -0.1031  0.1463  0.2834
    3TYR     BB  405   4.003   4.690   4.068 -0.1141 -0.0223  0.2148
    3TYR    SC1  406   3.838   4.895   4.319  0.2036  0.5560  0.6293
    3TYR    SC2  407   3.603   5.021   4.281  0.0402  0.1554  0.1910
    3TYR    SC3  408   3.648   4.887   4.511 -0.2561  0.0511  0.1943
    1TYR     BB  409   5.033   5.033   2.004  0.1788  0.1689  0.1083
    1TYR    SC1  410   5.049   4.845   1.779  0.0104  0.0005 -0.0530
    1TYR    SC2  411   5.115   4.740   1.539 -0.0043  0.0499 -0.0790
    1TYR    SC3  412   4.883   4.670   1.658 -0.1045  0.1948 -0.1848
    2HIS     BB  413   5.141   5.315   1.816 -0.3132 -0.0198 -0.0474
    2HIS    SC1  414   5.341   5.433   2.002 -0.1887 -0.0378  0.0157
    2HIS    SC2  415   5.470   5.618   2.152 -0.0788 -0.1930  0.1166
    2HIS    SC3  416   5.397   5.382   2.262 -0.1140 -0.2571 -0.0408
    3TYR     BB  417   5.165   5.261   1.583  0.0819 -0.4846  0.1094
    3TYR    SC1  418   5.337   5.440   1.364 -0.1795 -0.1134  0.0172
    3TYR    SC2  419   5.538   5.597   1.274 -0.0545 -0.0932  0.3157
    3TYR    SC3  420   5.408   5.432   1.104 -0.0201  0.1465  0.0481
    1TYR     BB  421   3.747   6.030   0.244  0.1509  0.0819  0.1388
    1TYR    SC1  422   3.465   6.178   0.227 -0.0819 -0.3080 -0.0255
    1TYR    SC2  423   3.201   6.216   0.267 -0.0291  0.1554 -0.0540
    1TYR    SC3  424   3.315   6.293   0.035  0.1094 -0.1923 -0.1089
    2HIS     BB  425   3.736   5.945   0.613 -0.0909 -0.3082 -0.0271
    2HIS    SC1  426   3.546   6.189   0.713 -0.3715  0.1042 -0.2991
    2HIS    SC2  427   3.356   6.167   0.904 -0.1054  0.2763 -0.0015
    2HIS    SC3  428   3.374   6.393   0.756 -0.1241  0.2652 -0.0207
    3TYR     BB  429   3.583   5.673   0.552  0.1582 -0.0222  0.0044
    3TYR    SC1  430   3.279   5.765   0.654  0.1072  0.0166 -0.0739
    3TYR    SC2  431   3.117   5.972   0.594  0.1053  0.1041  0.2136
    3TYR    SC3  432   3.015   5.750   0.709  0.0893 -0.1081 -0.1868
    1TYR     BB  433   4.263   7.184   1.160  0.1195 -0.0503  0.4527
    1TYR    SC1  434   4.455   6.984   1.272 -0.4606 -0.0463  0.0190
    1TYR    SC2  435   4.608   6.867   1.461 -0.0979 -0.0309 -0.2515
    1TYR    SC3  436   4.472   6.715   1.285 -0.4068 -0.0446 -0.0106
    2HIS     BB  437   4.049   7.338   1.354 -0.0697 -0.1124  0.0962
    2HIS    SC1  438   4.191   7.275   1.638  0.2050  0.2915  0.0566
    2HIS    SC2  439   4.328   7.085   1.773 -0.4199 -0.2093  0.0454
    2HIS    SC3  440   4.366   7.346   1.831  0.4553 -0.3090  0.0776
    3TYR     BB  441   3.767   7.370   1.446 -0.1656  0.0911  0.3021
    3TYR    SC1  442   3.758   7.415   1.719 -0.0987 -0.0665 -0.0064
    3TYR    SC2  443   3.646   7.638   1.823  0.0147  0.0318 -0.0919
    3TYR    SC3  444   3.853   7.520   1.949 -0.0401 -0.0214 -0.0509
    1TYR     BB  445   6.610   4.002   2.031  0.1347 -0.2549 -0.1125
    1TYR    SC1  446   6.309   3.975   2.116 -0.0185  0.2989 -0.0977
    1TYR    SC2  447   6.141   3.850   2.286  0.0155  0.2052 -0.1325
    1TYR    SC3  448   6.043   3.982   2.072 -0.0089  0.0642 -0.2097
    2HIS     BB  449   6.793   4.207   2.306  0.0281 -0.0818 -0.2372
    2HIS    SC1  450   6.510   4.170   2.514 -0.2263  0.0766 -0.2624
    2HIS    SC2  451   6.450   4.112   2.771  0.3524  0.1341 -0.0967
    2HIS    SC3  452   6.254   4.128   2.587 -0.0583 -0.0946  0.2967
    3TYR     BB  453   6.941   4.402   2.480  0.2120  0.1431 -0.1390
    3TYR    SC1  454   6.895   4.350   2.771  0.2169  0.2061  0.0493
    3TYR    SC2  455   6.861   4.214   3.002 -0.1113 -0.3011 -0.2696
    3TYR    SC3  456   6.695   4.418   2.939  0.1140 -0.0144  0.0214
    1TYR     BB  457   5.270   7.095   0.544  0.1096  0.1741 -0.1798
    1TYR    SC1  458   5.522   7.016   0.383  0.0983  0.1139 -0.2254
    1TYR    SC2  459   5.702   6.815   0.399 -0.0247 -0.0065 -0.3277
    1TYR    SC3  460   5.786   7.069   0.363  0.1661  0.0403  0.3005
    2HIS     BB  461   5.113   6.803   0.614 -0.1420  0.1280 -0.2766
    2HIS    SC1  462   5.327   6.613   0.621 -0.0124  0.0979  0.1064
    2HIS    SC2  463   5.453   6.385   0.690 -0.2805  0.0043  0.3050
    2HIS    SC3  464   5.567   6.623   0.744  0.0392 -0.0746  0.0250
    3TYR     BB  465   4.848   6.662   0.595  0.0233  0.0193 -0.1305
    3TYR    SC1  466   4.909   6.344   0.679  0.0847 -0.0513 -0.1247
    3TYR    SC2  467   5.069   6.136   0.742  0.3335  0.1841  0.0488
    3TYR    SC3  468   4.899   6.236   0.926 -0.4316 -0.3934 -0.2744
    1TYR     BB  469   5.124   4.895   2.447  0.2212 -0.0887 -0.0765
    1TYR    SC1  470   5.297   5.088   2.639 -0.1621  0.0402  0.0114
    1TYR    SC2  471   5.520   5.166   2.768 -0.1480 -0.0936  0.0700
    1TYR    SC3  472   5.325   5.345   2.717 -0.1594 -0.0397  0.2875
    2HIS     BB  473   5.244   4.612   2.411 -0.2104  0.0440 -0.2578
    2HIS    SC1  474   5.207   4.483   2.141 -0.0793  0.3007  0.0032
    2HIS    SC2  475   5.229   4.435   1.877  0.1760  0.2526  0.0297
    2HIS    SC3  476   5.146   4.239   2.043  0.2154  0.2193  0.0104
    3TYR     BB  477   5.219   4.451   2.603 -0.0174  0.2430 -0.1086
    3TYR    SC1  478   5.209   4.153   2.572  0.0623  0.0459  0.0546
    3TYR    SC2  479   5.195   3.950   2.395 -0.0163  0.0776  0.0240
    3TYR    SC3  480   5.179   3.899   2.659 -0.4003  0.0725  0.0075
    1TYR     BB  481   3.255   5.725   1.677 -0.6793 -0.0065  0.0582
    1TYR    SC1  482   2.956   5.694   1.619 -0.0600  0.1315  0.3427
    1TYR    SC2  483   2.699   5.741   1.548  0.0461 -0.0495 -0.2261
    1TYR    SC3  484   2.756   5.549   1.729 -0.2387  0.4071  0.3956
    2HIS     BB  485   3.488   5.514   1.626 -0.2076  0.4823 -0.0442
    2HIS    SC1  486   3.476   5.276   1.395  0.1156  0.0418  0.2463
    2HIS    SC2  487   3.607   5.145   1.199  0.0491  0.1974  0.0946
    2HIS    SC3  488   3.377   5.044   1.300  0.0323  0.1646  0.0241
    3TYR     BB  489   3.683   5.428   1.851 -0.1111 -0.1461 -0.0097
    3TYR    SC1  490   3.712   5.670   2.062 -0.1604  0.0469 -0.0588
    3TYR    SC2  491   3.945   5.750   2.173 -0.2529  0.0817  0.1138
    3TYR    SC3  492   3.722   5.734   2.324 -0.3963  0.1876 -0.0810
    1TYR     BB  493   8.223   4.386   2.574  0.2081  0.1351  0.1386
    1TYR    SC1  494   8.450   4.565   2.658 -0.0265  0.1978 -0.1255
    1TYR    SC2  495   8.690   4.450   2.612 -0.0376  0.1022  0.0458
    1TYR    SC3  496   8.677   4.692   2.730 -0.0288 -0.0587  0.3934
    2HIS     BB  497   8.197   4.114   2.536  0.2323  0.2297 -0.1046
    2HIS    SC1  498   7.917   3.911   2.636 -0.1554  0.0627  0.0596
    2HIS    SC2  499   7.708   3.826   2.784  0.1057 -0.1880  0.3030
    2HIS    SC3  500   7.737   3.741   2.529 -0.2407  0.0880  0.1608
    3TYR     BB  501   8.450   3.958   2.699 -0.1132  0.0440  0.0266
    3TYR    SC1  502   8.525   4.141   2.941  0.2734  0.2645  0.0313
    3TYR    SC2  503   8.507   4.374   3.078 -0.3981  0.0608  0.3425
    3TYR    SC3  504   8.583   4.148   3.205 -0.0407  0.0411  0.1128
    1TYR     BB  505   4.114   5.945   1.034  0.2809 -0.1859  0.3351
    1TYR    SC1  506   4.208   5.774   0.766 -0.0108 -0.0482 -0.0459
    1TYR    SC2  507   4.334   5.577   0.632 -0.0955 -0.0134 -0.1790
    1TYR    SC3  508   4.106   5.683   0.534 -0.1021  0.0858 -0.0600
    2HIS     BB  509   3.791   5.913   1.159  0.2005 -0.1093 -0.1145
    2HIS    SC1  510   3.798   5.917   1.459 -0.1527 -0.0526 -0.0108
    2HIS    SC2  511   3.993   5.900   1.645 -0.0058  0.3838 -0.1114
    2HIS    SC3  512   3.738   5.944   1.721 -0.0906 -0.2253  0.0235
    3TYR     BB  513   3.525   5.713   1.115  0.0063  0.0351 -0.1011
    3TYR    SC1  514   3.271   5.729   1.184  0.1491  0.1086  0.4276
    3TYR    SC2  515   3.016   5.817   1.169  0.0053 -0.3183  0.1366
    3TYR    SC3  516   3.067   5.553   1.191  0.4278 -0.2713 -0.1273
    1TYR     BB  517   7.976   5.740   2.661  0.0434  0.2471 -0.3400
    1TYR    SC1  518   7.802   5.473   2.517 -0.0771 -0.1421 -0.1625
    1TYR    SC2  519   7.756   5.233   2.630 -0.0993  0.0755  0.3205
    1TYR    SC3  520   7.580   5.333   2.452 -0.1160 -0.2370  0.1524
    2HIS     BB  521   7.767   5.803   2.943  0.0056  0.2874  0.4515
    2HIS    SC1  522   7.903   5.865   3.172  0.1782  0.2229 -0.1690
    2HIS    SC2  523   7.985   5.792   3.419 -0.2532  0.0973 -0.0515
    2HIS    SC3  524   8.041   6.039   3.325  0.4676 -0.0554 -0.0990
    3TYR     BB  525   7.535   5.542   3.016  0.1550 -0.1045 -0.2182
    3TYR    SC1  526   7.360   5.440   2.806 -0.2586  0.3391  0.2244
    3TYR    SC2  527   7.183   5.464   2.604 -0.0851 -0.2769 -0.0299
    3TYR    SC3  528   7.160   5.261   2.780  0.1292 -0.1138  0.1952
    1TYR     BB  529   4.079   6.868   0.728 -0.2400 -0.2307 -0.0836
    1TYR    SC1  530   4.255   6.623   0.857 -0.3639  0.2838  0.3791
    1TYR    SC2  531   4.286   6.418   1.030  0.0686 -0.0053 -0.0135
    1TYR    SC3  532   4.502   6.529   0.912 -0.2045  0.2396 -0.3058
    2HIS     BB  533   3.891   6.824   0.530 -0.0774  0.2010 -0.1420
    2HIS    SC1  534   3.728   7.045   0.356 -0.4303  0.0275  0.0922
    2HIS    SC2  535   3.688   7.161   0.116 -0.2850  0.0100  0.0582
    2HIS    SC3  536   3.807   7.300   0.315 -0.3100 -0.0098  0.0870
    3TYR     BB  537   3.775   6.545   0.483 -0.0907  0.1084 -0.1817
    3TYR    SC1  538   3.801   6.536   0.157 -0.0694  0.4275 -0.0723
    3TYR    SC2  539   3.796   6.421  -0.087  0.2186 -0.0526  0.1294
    3TYR    SC3  540   3.937   6.647  -0.048 -0.0137  0.1581 -0.1876
    1TYR     BB  541   6.096   5.191   1.151 -0.1269 -0.0746 -0.0729
    1TYR    SC1  542   6.319   5.321   1.025 -0.3166  0.0622  0.0623
    1TYR    SC2  543   6.514   5.443   0.883 -0.2113  0.0470  0.1904
    1TYR    SC3  544   6.405   5.566   1.097 -0.1343 -0.0645  0.2952
    2HIS     BB  545   6.165   4.916   1.264  0.1106 -0.2674  0.3396
    2HIS    SC1  546   6.345   4.821   1.055  0.0303 -0.2768 -0.0552
    2HIS    SC2  547   6.517   4.923   0.874  0.2173 -0.3501  0.0769
    2HIS    SC3  548   6.375   4.700   0.815  0.0553 -0.2083 -0.0867
    3TYR     BB  549   5.904   4.683   1.398  0.0387 -0.4154  0.0207
    3TYR    SC1  550   6.046   4.448   1.224  0.3296  0.4119 -0.2524
    3TYR    SC2  551   6.237   4.272   1.149 -0.0149 -0.2319  0.2546
    3TYR    SC3  552   5.985   4.187   1.198 -0.2557  0.4531  0.3547
    1TYR     BB  553   3.704   6.459   1.732  0.0079  0.1517 -0.1224
    1TYR    SC1  554   3.538   6.285   1.940  0.2156  0.1738  0.3171
    1TYR    SC2  555   3.414   6.190   2.161 -0.0294  0.2702  0.2252
    1TYR    SC3  556   3.280   6.207   1.927  0.2279  0.1660  0.0645
    2HIS     BB  557   3.539   6.338   1.445  0.1350 -0.1556 -0.2889
    2HIS    SC1  558   3.677   6.398   1.183 -0.1345 -0.0876 -0.1147
    2HIS    SC2  559   3.688   6.575   0.980  0.0251  0.1999  0.1339
    2HIS    SC3  560   3.848   6.358   0.978 -0.0055  0.1760 -0.0640
    3TYR     BB  561   3.333   6.140   1.400 -0.3145 -0.1099  0.2548
    3TYR    SC1  562   3.075   6.145   1.503  0.1704 -0.1708  0.2199
    3TYR    SC2  563   2.878   6.253   1.652 -0.1062 -0.0347 -0.2186
    3TYR    SC3  564   2.827   6.172   1.400  0.3025 -0.4185 -0.1935
    1TYR     BB  565   6.653   5.030   1.951 -0.0551 -0.0635  0.0683
    1TYR    SC1  566   6.767   5.320   1.838  0.0813 -0.0084  0.1239
    1TYR    SC2  567   6.811   5.559   1.956  0.1565 -0.1666  0.4298
    1TYR    SC3  568   6.960   5.484   1.743 -0.0108  0.1428  0.1939
    2HIS     BB  569   6.773   4.977   2.203  0.1129 -0.2654  0.0734
    2HIS    SC1  570   6.986   4.729   2.152  0.1049 -0.3137  0.5909
    2HIS    SC2  571   6.934   4.553   1.954 -0.1269  0.1793  0.1869
    2HIS    SC3  572   7.188   4.592   2.036 -0.0566 -0.2272  0.1868
    3TYR     BB  573   6.793   5.243   2.377 -0.0915  0.0743 -0.1757
    3TYR    SC1  574   6.784   5.509   2.357 -0.0617 -0.2043  0.0220
    3TYR    SC2  575   6.760   5.670   2.573  0.2232 -0.3275  0.1519
    3TYR    SC3  576   6.903   5.752   2.359 -0.1987 -0.1353 -0.0697
    1TYR     BB  577   4.858   5.435   1.245  0.2068 -0.1844  0.0817
    1TYR    SC1  578   4.930   5.170   1.087 -0.2310  0.1841 -0.3332
    1TYR    SC2  579   4.865   4.924   0.997 -0.0073  0.0868 -0.2381
    1TYR    SC3  580   5.114   5.021   0.958  0.1696 -0.0425  0.4261
    2HIS     BB  581   4.751   5.748   1.058  0.1863 -0.2527  0.1615
    2HIS    SC1  582   4.989   5.662   0.851 -0.0671  0.0100  0.0192
    2HIS    SC2  583   5.124   5.464   0.727 -0.2186 -0.0004 -0.1343
    2HIS    SC3  584   5.146   5.718   0.638  0.3397  0.1449  0.3377
    3TYR     BB  585   4.608   5.894   1.143 -0.1051  0.2242 -0.2890
    3TYR    SC1  586   4.684   6.121   1.344 -0.3528  0.0618 -0.2525
    3TYR    SC2  587   4.740   6.385   1.347 -0.0332 -0.0015 -0.1427
    3TYR    SC3  588   4.862   6.219   1.521  0.1621 -0.2954 -0.5394
    1TYR     BB  589   6.523   4.687   2.544 -0.1463 -0.0985 -0.1447
    1TYR    SC1  590   6.397   4.597   2.308 -0.1721  0.0946 -0.0477
    1TYR    SC2  591   6.337   4.505   2.061 -0.0058 -0.4754  0.1078
    1TYR    SC3  592   6.168   4.462   2.267  0.0256 -0.3292  0.1658
    2HIS     BB  593   6.356   5.013   2.544  0.6164  0.0897  0.2972
    2HIS    SC1  594   6.484   5.181   2.787  0.0290 -0.2792  0.3809
    2HIS    SC2  595   6.719   5.277   2.878  0.2005  0.0034 -0.2900
    2HIS    SC3  596   6.493   5.423   2.906  0.2740  0.1445 -0.4155
    3TYR     BB  597   6.262   5.113   2.302 -0.0148  0.1550  0.1847
    3TYR    SC1  598   6.320   5.400   2.277 -0.4339  0.1352 -0.2607
    3TYR    SC2  599   6.397   5.562   2.075  0.0614 -0.0111 -0.2058
    3TYR    SC3  600   6.344   5.666   2.318  0.1136  0.0978 -0.2402
    1TYR     BB  601   4.929   4.669   2.921 -0.1045  0.1552  0.1005
    1TYR    SC1  602   5.011   4.901   3.032 -0.3125 -0.0147 -0.0194
    1TYR    SC2  603   5.075   5.028   3.262 -0.3178 -0.0494  0.0013
    1TYR    SC3  604   5.021   5.170   3.039 -0.0539 -0.0207 -0.0479
    2HIS     BB  605   5.034   4.415   3.073  0.1241  0.2324 -0.0839
    2HIS    SC1  606   4.961   4.098   3.024  0.0144 -0.0633  0.2593
    2HIS    SC2  607   4.821   3.917   3.167 -0.3497  0.1082  0.1338
    2HIS    SC3  608   4.794   3.926   2.898 -0.0077  0.0763  0.0932
    3TYR     BB  609   5.132   4.418   3.351 -0.0387  0.2446 -0.3839
    3TYR    SC1  610   5.023   4.203   3.534 -0.0155  0.1927 -0.2456
    3TYR    SC2  611   5.060   3.950   3.622 -0.0348  0.1879 -0.2513
    3TYR    SC3  612   4.815   4.062   3.635 -0.0094  0.2355 -0.1721
    1TYR     BB  613   1.287   4.524   3.103 -0.0719 -0.2032  0.0418
    1TYR    SC1  614   1.321   4.257   2.979  0.1028  0.2182 -0.1798
    1TYR    SC2  615   1.240   4.093   2.781 -0.0607  0.1035 -0.0221
    1TYR    SC3  616   1.368   3.991   2.996 -0.2530  0.1638  0.1245
    2HIS     BB  617   1.203   4.602   3.359 -0.1767 -0.1629  0.0598
    2HIS    SC1  618   0.921   4.534   3.468  0.0040  0.3017 -0.0134
    2HIS    SC2  619   0.808   4.457   3.700  0.3670  0.0822  0.0999
    2HIS    SC3  620   0.653   4.507   3.485  0.0451  0.0183  0.3084
    3TYR     BB  621   1.371   4.898   3.390 -0.1297  0.0238  0.0457
    3TYR    SC1  622   1.706   4.867   3.326 -0.0332 -0.1347  0.1201
    3TYR    SC2  623   1.905   5.046   3.360 -0.0601 -0.1651  0.4836
    3TYR    SC3  624   1.859   4.941   3.115 -0.1644  0.4555  0.2127
    1TYR     BB  625   2.680   5.624   3.227 -0.3629  0.1183  0.1167
    1TYR    SC1  626   2.747   5.800   3.012 -0.0757 -0.2490 -0.1098
    1TYR    SC2  627   2.979   5.856   2.885  0.0928  0.2754  0.3728
    1TYR    SC3  628   2.787   6.045   2.905 -0.3169 -0.0916  0.1423
    2HIS     BB  629   2.421   5.553   3.291 -0.3412 -0.1503 -0.0086
    2HIS    SC1  630   2.370   5.721   3.563  0.0922 -0.0699  0.1293
    2HIS    SC2  631   2.355   5.980   3.637 -0.2482 -0.0798  0.1141
    2HIS    SC3  632   2.302   5.785   3.816  0.1347 -0.1498  0.1615
    3TYR     BB  633   2.219   5.458   3.156 -0.4506  0.0815  0.1253
    3TYR    SC1  634   1.906   5.467   3.155 -0.1256  0.0470 -0.3439
    3TYR    SC2  635   1.686   5.509   3.004 -0.3249  0.0782 -0.0549
    3TYR    SC3  636   1.662   5.398   3.249 -0.0196  0.1111 -0.0052
    1TYR     BB  637   8.102   4.718   3.067 -0.0262 -0.0710 -0.3334
    1TYR    SC1  638   8.403   4.843   3.126 -0.1340 -0.2234 -0.1363
    1TYR    SC2  639   8.617   5.005   3.097 -0.1719 -0.1361  0.0559
    1TYR    SC3  640   8.516   4.957   3.343 -0.3232 -0.2428 -0.0253
    2HIS     BB  641   8.025   4.852   2.793  0.0339  0.0199 -0.2287
    2HIS    SC1  642   8.255   5.049   2.719  0.1009  0.1349 -0.0623
    2HIS    SC2  643   8.462   5.211   2.660  0.0449  0.1534 -0.2131
    2HIS    SC3  644   8.209   5.303   2.643  0.0211  0.1179 -0.0720
    3TYR     BB  645   7.943   4.805   2.412 -0.3381 -0.1339  0.2006
    3TYR    SC1  646   8.061   5.016   2.297  0.0329  0.0391  0.0343
    3TYR    SC2  647   8.039   5.270   2.209  0.1584 -0.0251 -0.1913
    3TYR    SC3  648   8.269   5.133   2.170  0.1709 -0.1027  0.1249
    1TYR     BB  649   3.893   4.824   1.994  0.2634  0.1749  0.2363
    1TYR    SC1  650   3.868   5.060   2.214 -0.0976 -0.1030 -0.0694
    1TYR    SC2  651   3.675   5.201   2.339 -0.0865 -0.4053  0.3146
    1TYR    SC3  652   3.934   5.241   2.403 -0.0230 -0.1312 -0.0679
    2HIS     BB  653   3.578   4.725   1.932 -0.3735 -0.4058  0.1644
    2HIS    SC1  654   3.463   4.473   1.863 -0.0555  0.1292 -0.3315
    2HIS    SC2  655   3.445   4.221   1.770 -0.1683 -0.0689  0.1844
    2HIS    SC3  656   3.222   4.355   1.840 -0.0874  0.0633  0.1930
    3TYR     BB  657   3.453   5.017   1.804 -0.1971  0.1522  0.3103
    3TYR    SC1  658   3.183   5.114   1.767  0.1008 -0.0426 -0.1771
    3TYR    SC2  659   3.029   5.222   1.573 -0.0879  0.0080 -0.0032
    3TYR    SC3  660   2.914   5.102   1.786  0.1167 -0.1166  0.0406
    1TYR     BB  661   1.600   4.244   1.794  0.1604  0.2589  0.0051
    1TYR    SC1  662   1.757   4.383   1.584  0.1840  0.1852  0.3228
    1TYR    SC2  663   1.822   4.582   1.414 -0.0518  0.0362  0.0486
    1TYR    SC3  664   1.989   4.372   1.446  0.1248  0.1978  0.2216
    2HIS     BB  665   1.898   4.140   1.965  0.0876  0.1188 -0.3422
    2HIS    SC1  666   2.111   4.362   1.911  0.0110 -0.1044 -0.0655
    2HIS    SC2  667   2.334   4.480   2.007 -0.0454 -0.1861  0.1729
    2HIS    SC3  668   2.187   4.605   1.818 -0.0296  0.0644  0.3200
    3TYR     BB  669   1.957   3.864   2.039 -0.3670 -0.4470 -0.0981
    3TYR    SC1  670   1.899   3.823   2.335  0.2168  0.2216  0.1260
    3TYR    SC2  671   2.078   3.745   2.522  0.2257 -0.1130 -0.0133
    3TYR    SC3  672   1.824   3.652   2.529  0.2640 -0.2454 -0.2434
    1TYR     BB  673   4.144   5.397   1.901 -0.3524  0.1242 -0.0124
    1TYR    SC1  674   4.439   5.485   1.978  0.2143 -0.2521  0.3297
    1TYR    SC2  675   4.654   5.636   2.039  0.0834  0.3426 -0.4749
    1TYR    SC3  676   4.687   5.394   1.924  0.3081  0.2900 -0.3083
    2HIS     BB  677   4.168   5.140   1.748  0.1242 -0.1999  0.0564
    2HIS    SC1  678   4.421   5.104   1.639 -0.0024  0.1346 -0.4215
    2HIS    SC2  679   4.684   5.058   1.600 -0.0144 -0.2671 -0.1075
    2HIS    SC3  680   4.514   5.052   1.390  0.1925 -0.2365 -0.2809
    3TYR     BB  681   3.909   5.065   1.583  0.2170  0.1881  0.0846
    3TYR    SC1  682   3.991   4.944   1.372  0.1925 -0.1226  0.2010
    3TYR    SC2  683   4.100   4.749   1.219 -0.0916 -0.0610 -0.0949
    3TYR    SC3  684   4.027   4.983   1.107  0.1954  0.2067  0.2456
    1TYR     BB  685   4.008   4.089   2.468 -0.0971 -0.1345 -0.1434
    1TYR    SC1  686   4.086   3.847   2.394 -0.1050 -0.1682 -0.2420
    1TYR    SC2  687   4.321   3.732   2.327 -0.0793  0.0134 -0.4810
    1TYR    SC3  688   4.098   3.581   2.349  0.0738 -0.1782 -0.1454
    2HIS     BB  689   3.801   3.897   2.787  0.1992 -0.1422 -0.0191
    2HIS    SC1  690   3.841   3.563   2.711  0.1115  0.1751  0.0004
    2HIS    SC2  691   3.899   3.311   2.634 -0.3505  0.0235  0.1111
    2HIS    SC3  692   3.876   3.370   2.896 -0.1763  0.2028  0.0890
    3TYR     BB  693   3.916   3.901   3.059 -0.1649  0.2821  0.0852
    3TYR    SC1  694   3.930   3.662   3.253  0.0190 -0.1062  0.2229
    3TYR    SC2  695   3.926   3.555   3.500 -0.1256 -0.3017  0.1387
    3TYR    SC3  696   4.068   3.436   3.304  0.3131  0.0641  0.2133
    1TYR     BB  697   1.821   5.102   2.641 -0.0222 -0.0132  0.7798
    1TYR    SC1  698   1.562   5.130   2.756  0.0429  0.2073 -0.1094
    1TYR    SC2  699   1.403   5.156   2.973 -0.2150  0.4292 -0.3156
    1TYR    SC3  700   1.295   5.160   2.725  0.0591  0.0604 -0.4530
    2HIS     BB  701   2.045   5.306   2.679 -0.0326  0.0244  0.0110
    2HIS    SC1  702   2.027   5.583   2.663  0.1381 -0.0944  0.0721
    2HIS    SC2  703   2.068   5.778   2.481 -0.2885 -0.1335 -0.0789
    2HIS    SC3  704   1.942   5.834   2.714  0.0014 -0.1420  0.0850
    3TYR     BB  705   2.352   5.265   2.742  0.1464 -0.0994  0.1135
    3TYR    SC1  706   2.538   5.495   2.729 -0.0014 -0.0668 -0.2589
    3TYR    SC2  707   2.480   5.750   2.662  0.0365  0.0064 -0.0247
    3TYR    SC3  708   2.695   5.627   2.554 -0.0593  0.0243 -0.2425
    1TYR     BB  709   4.768   6.228   0.169  0.0465  0.0580 -0.2001
    1TYR    SC1  710   4.671   6.057   0.409  0.0861  0.0700 -0.1674
    1TYR    SC2  711   4.563   6.019   0.654 -0.4985  0.2814 -0.3724
    1TYR    SC3  712   4.708   5.823   0.539 -0.3280  0.1286  0.0786
    2HIS     BB  713   5.076   6.314   0.218  0.0461 -0.2460 -0.0161
    2HIS    SC1  714   5.218   6.592   0.155  0.0698 -0.0018  0.2364
    2HIS    SC2  715   5.235   6.768  -0.049  0.0594  0.1302  0.3476
    2HIS    SC3  716   5.459   6.683   0.074  0.0908 -0.1713  0.0994
    3TYR     BB  717   5.277   6.142   0.270  0.1495  0.1962  0.0304
    3TYR    SC1  718   5.557   6.252   0.243 -0.0266  0.1207  0.0172
    3TYR    SC2  719   5.803   6.362   0.266  0.0138  0.0575 -0.0994
    3TYR    SC3  720   5.731   6.239   0.037 -0.1050  0.0213 -0.0440
    1TYR     BB  721   6.136   3.676   3.381 -0.0622  0.1860  0.1282
    1TYR    SC1  722   5.905   3.566   3.215  0.0818  0.1125 -0.1274
    1TYR    SC2  723   5.673   3.623   3.089 -0.1606  0.0013  0.2466
    1TYR    SC3  724   5.757   3.367   3.108  0.0423  0.0479  0.0434
    2HIS     BB  725   6.100   3.859   3.607  0.0016  0.0917  0.0885
    2HIS    SC1  726   6.338   3.884   3.772 -0.0706 -0.1004  0.0450
    2HIS    SC2  727   6.450   4.103   3.884 -0.2051 -0.1171  0.2171
    2HIS    SC3  728   6.580   3.866   3.890 -0.2251 -0.1253  0.3712
    3TYR     BB  729   6.036   4.143   3.561  0.2756 -0.3071 -0.1583
    3TYR    SC1  730   5.909   4.178   3.870  0.2978  0.0435  0.2502
    3TYR    SC2  731   5.719   4.124   4.054  0.0919 -0.0149  0.0270
    3TYR    SC3  732   5.978   4.070   4.108  0.0369 -0.0288  0.2971
    1TYR     BB  733   2.682   5.121   2.336 -0.1771  0.0641 -0.0735
    1TYR    SC1  734   2.545   5.377   2.244 -0.0014 -0.1362 -0.1340
    1TYR    SC2  735   2.284   5.443   2.232 -0.0498 -0.2957 -0.0057
    1TYR    SC3  736   2.471   5.616   2.144 -0.2078 -0.2544 -0.2739
    2HIS     BB  737   2.666   4.890   2.545  0.1531 -0.1063  0.1724
    2HIS    SC1  738   2.788   4.971   2.846  0.0933  0.0112  0.1473
    2HIS    SC2  739   2.841   5.213   2.952  0.2378 -0.0261  0.1633
    2HIS    SC3  740   3.032   5.022   2.951  0.1233 -0.1419  0.1556
    3TYR     BB  741   2.564   4.632   2.449  0.0150  0.2745  0.2147
    3TYR    SC1  742   2.644   4.378   2.607 -0.0875 -0.0414  0.0001
    3TYR    SC2  743   2.642   4.134   2.723  0.1694  0.0095  0.1190
    3TYR    SC3  744   2.667   4.356   2.875 -0.7914  0.1797  0.1044
    1TYR     BB  745   3.401   3.654   2.913  0.0634  0.1700 -0.3927
    1TYR    SC1  746   3.501   3.497   3.144 -0.2697 -0.1230 -0.0061
    1TYR    SC2  747   3.596   3.293   3.293  0.1217  0.1275  0.1060
    1TYR    SC3  748   3.482   3.507   3.413 -0.1312  0.0569 -0.0004
    2HIS     BB  749   3.140   3.500   2.804  0.1892  0.0807 -0.1574
    2HIS    SC1  750   2.985   3.371   3.057 -0.0613  0.0092 -0.0802
    2HIS    SC2  751   3.040   3.368   3.322 -0.0053  0.2076 -0.0878
    2HIS    SC3  752   2.792   3.305   3.234  0.0022  0.0454  0.0032
    3TYR     BB  753   2.995   3.680   2.595  0.0665  0.0783 -0.0852
    3TYR    SC1  754   2.691   3.604   2.621  0.0339 -0.1315 -0.0397
    3TYR    SC2  755   2.521   3.400   2.569 -0.2844  0.2018 -0.3934
    3TYR    SC3  756   2.588   3.459   2.824 -0.4778 -0.1088 -0.2632
    1TYR     BB  757   0.920   5.265   1.879 -0.3533 -0.0642 -0.1752
    1TYR    SC1  758   0.879   5.468   2.130  0.0023 -0.0875 -0.0441
    1TYR    SC2  759   0.733   5.552   2.341  0.2106  0.2607 -0.0288
    1TYR    SC3  760   0.993   5.486   2.374  0.1352 -0.1034 -0.1041
    2HIS     BB  761   1.226   5.200   1.790 -0.4090 -0.0563  0.1676
    2HIS    SC1  762   1.251   4.924   1.707  0.2159  0.1201  0.2850
    2HIS    SC2  763   1.110   4.766   1.539  0.1204 -0.0031  0.4756
    2HIS    SC3  764   1.369   4.711   1.590  0.2174  0.1685  0.1975
    3TYR     BB  765   1.406   5.468   1.899 -0.0235  0.3179  0.1897
    3TYR    SC1  766   1.666   5.286   1.968  0.0789 -0.2127 -0.0469
    3TYR    SC2  767   1.926   5.232   2.018  0.0419 -0.2168  0.1515
    3TYR    SC3  768   1.733   5.116   2.167 -0.0672 -0.0880  0.1132
    1TYR     BB  769   5.135   7.259   1.485  0.1140  0.2093 -0.3435
    1TYR    SC1  770   4.829   7.380   1.369  0.1044 -0.0207 -0.6800
    1TYR    SC2  771   4.681   7.587   1.278 -0.2466 -0.1041 -0.3335
    1TYR    SC3  772   4.569   7.400   1.438  0.3251  0.0676  0.3323
    2HIS     BB  773   5.062   6.941   1.601  0.1374  0.0648 -0.1145
    2HIS    SC1  774   4.895   7.005   1.823  0.1325  0.2037 -0.0862
    2HIS    SC2  775   4.705   7.084   1.997  0.0410 -0.1471 -0.0162
    2HIS    SC3  776   4.914   6.936   2.083  0.0866 -0.1774 -0.1750
    3TYR     BB  777   5.211   6.705   1.502 -0.0993  0.0105 -0.2004
    3TYR    SC1  778   5.270   6.542   1.272 -0.1063 -0.2978 -0.1267
    3TYR    SC2  779   5.419   6.391   1.105  0.3891  0.2224 -0.1974
    3TYR    SC3  780   5.200   6.519   1.012  0.1354 -0.1922 -0.2051
    1TYR     BB  781   8.702   4.196   2.170 -0.1796  0.1729 -0.1911
    1TYR    SC1  782   8.559   4.474   2.162 -0.0636 -0.0617  0.4110
    1TYR    SC2  783   8.551   4.714   2.039 -0.0540 -0.2312  0.0672
    1TYR    SC3  784   8.329   4.616   2.157 -0.1061 -0.1328  0.0517
    2HIS     BB  785   8.639   3.910   2.220 -0.0311  0.0900 -0.1611
    2HIS    SC1  786   8.839   3.783   2.459  0.2296  0.2399 -0.3339
    2HIS    SC2  787   8.914   3.524   2.458 -0.1701  0.1020  0.1423
    2HIS    SC3  788   9.069   3.709   2.578 -0.0977  0.0048  0.2007
    3TYR     BB  789   8.466   3.686   2.183 -0.1222  0.2064  0.2208
    3TYR    SC1  790   8.185   3.769   2.119 -0.1177  0.0622  0.3603
    3TYR    SC2  791   7.941   3.882   2.150 -0.2417  0.0111 -0.2675
    3TYR    SC3  792   7.977   3.685   1.968  0.2576 -0.0387 -0.1329
    1TYR     BB  793   3.118   3.439   5.890 -0.3267  0.2306  0.2241
    1TYR    SC1  794   2.950   3.422   5.609 -0.0577 -0.1531  0.1584
    1TYR    SC2  795   2.888   3.659   5.495  0.3225 -0.2014 -0.1735
    1TYR    SC3  796   2.802   3.429   5.383 -0.3394 -0.2367  0.3335
    2HIS     BB  797   3.401   3.671   5.817 -0.0161 -0.0773  0.2802
    2HIS    SC1  798   3.592   3.485   5.674  0.5204  0.2347  0.1535
    2HIS    SC2  799   3.516   3.254   5.558  0.1313  0.3021  0.2577
    2HIS    SC3  800   3.701   3.411   5.438 -0.0780  0.2544 -0.1521
    3TYR     BB  801   3.310   3.981   5.685  0.0297  0.1394  0.1694
    3TYR    SC1  802   3.012   3.978   5.824  0.2735 -0.5305  0.0210
    3TYR    SC2  803   2.988   3.972   6.093  0.1670 -0.0863  0.0297
    3TYR    SC3  804   2.794   3.867   5.938  0.1189 -0.1384  0.1243
    1TYR     BB  805   4.196   4.716   3.121  0.0694  0.1244 -0.0007
    1TYR    SC1  806   4.079   4.503   3.338  0.0850 -0.0212  0.4544
    1TYR    SC2  807   3.956   4.264   3.366  0.1796 -0.1029  0.2070
    1TYR    SC3  808   4.085   4.374   3.575  0.2660 -0.3430  0.2842
    2HIS     BB  809   3.982   4.937   3.103  0.1725 -0.1041 -0.3520
    2HIS    SC1  810   3.743   4.869   2.886 -0.1303  0.4720  0.1360
    2HIS    SC2  811   3.500   4.770   2.821  0.2855 -0.3986 -0.3079
    2HIS    SC3  812   3.594   4.990   2.696 -0.2883  0.0349 -0.0359
    3TYR     BB  813   3.908   5.207   3.370 -0.0814 -0.2822  0.1160
    3TYR    SC1  814   3.842   5.163   3.639  0.2496  0.2273 -0.0352
    3TYR    SC2  815   3.697   5.177   3.866  0.0753 -0.3529 -0.0902
    3TYR    SC3  816   3.965   5.146   3.879  0.1058 -0.0813  0.0226
    1TYR     BB  817   2.639   4.531   4.456  0.3006 -0.1780  0.2125
    1TYR    SC1  818   2.429   4.382   4.575 -0.1577 -0.2586 -0.4276
    1TYR    SC2  819   2.307   4.210   4.744  0.1440 -0.1712 -0.1054
    1TYR    SC3  820   2.160   4.365   4.579 -0.1613 -0.2704  0.0641
    2HIS     BB  821   2.902   4.494   4.330  0.0960  0.1117 -0.0486
    2HIS    SC1  822   3.099   4.649   4.502 -0.2216  0.1369  0.4229
    2HIS    SC2  823   3.195   4.878   4.396  0.0102 -0.1310  0.0190
    2HIS    SC3  824   3.243   4.818   4.655  0.1274  0.1735  0.0734
    3TYR     BB  825   2.947   4.434   3.997  0.2777 -0.0357 -0.1959
    3TYR    SC1  826   3.155   4.298   3.900  0.0137 -0.1026  0.0580
    3TYR    SC2  827   3.340   4.112   3.962 -0.1445 -0.1844  0.3030
    3TYR    SC3  828   3.324   4.207   3.710 -0.0129 -0.4463  0.1903
    1TYR     BB  829   4.963   5.462   2.371  0.3130 -0.1473  0.0560
    1TYR    SC1  830   5.125   5.721   2.467  0.1579 -0.1813  0.1787
    1TYR    SC2  831   5.364   5.768   2.584  0.0506  0.0396  0.3166
    1TYR    SC3  832   5.149   5.916   2.652 -0.0936 -0.0564  0.0846
    2HIS     BB  833   4.717   5.267   2.466 -0.2866 -0.2609 -0.5219
    2HIS    SC1  834   4.457   5.400   2.445 -0.1574  0.2246  0.0344
    2HIS    SC2  835   4.270   5.589   2.398  0.0279  0.4525  0.1841
    2HIS    SC3  836   4.309   5.496   2.649 -0.2544 -0.0024  0.0751
    3TYR     BB  837   4.680   4.992   2.614  0.0609 -0.0063  0.0616
    3TYR    SC1  838   4.560   5.141   2.880 -0.0903 -0.4370  0.1630
    3TYR    SC2  839   4.381   5.277   3.030 -0.1574 -0.3959  0.0473
    3TYR    SC3  840   4.574   5.132   3.150 -0.0888 -0.2059  0.1736
    1TYR     BB  841   1.467   4.191   2.310 -0.3400 -0.0508 -0.3149
    1TYR    SC1  842   1.467   3.901   2.161  0.0782 -0.3020  0.1443
    1TYR    SC2  843   1.516   3.659   2.050  0.0381 -0.2027 -0.0961
    1TYR    SC3  844   1.337   3.827   1.937 -0.2080 -0.2029  0.2726
    2HIS     BB  845   1.690   4.155   2.584  0.4476  0.2032  0.0249
    2HIS    SC1  846   1.592   4.435   2.692  0.2202 -0.0861 -0.2634
    2HIS    SC2  847   1.676   4.669   2.798  0.1382 -0.1496 -0.0532
    2HIS    SC3  848   1.472   4.666   2.621  0.1513 -0.0599 -0.0700
    3TYR     BB  849   1.823   4.060   2.835 -0.1120  0.1528 -0.0304
    3TYR    SC1  850   2.102   3.911   2.941  0.1571 -0.1069  0.2056
    3TYR    SC2  851   2.347   3.830   2.864  0.1678 -0.2076  0.3400
    3TYR    SC3  852   2.215   3.694   3.056 -0.1347 -0.3580  0.0398
    1TYR     BB  853   3.712   3.975   5.379 -0.0517  0.1630 -0.3734
    1TYR    SC1  854   3.669   4.250   5.472 -0.1471 -0.2087  0.0834
    1TYR    SC2  855   3.524   4.461   5.557  0.0942  0.0821 -0.1882
    1TYR    SC3  856   3.699   4.341   5.724 -0.2384 -0.0911  0.0530
    2HIS     BB  857   3.599   3.998   5.028 -0.0837  0.3320 -0.1547
    2HIS    SC1  858   3.827   4.187   4.966  0.0321 -0.3998  0.1148
    2HIS    SC2  859   3.960   4.370   5.113 -0.4192  0.5520 -0.5296
    2HIS    SC3  860   4.091   4.227   4.925 -0.0113 -0.0371  0.1421
    3TYR     BB  861   3.365   4.021   4.927 -0.1836  0.0175 -0.1679
    3TYR    SC1  862   3.173   3.774   4.885  0.1761  0.0832 -0.0883
    3TYR    SC2  863   3.048   3.718   4.652 -0.0825  0.0544  0.0531
    3TYR    SC3  864   2.986   3.580   4.875  0.0534  0.1830  0.1735
    1TYR     BB  865   3.457   4.034   3.230  0.2380  0.0755  0.1426
    1TYR    SC1  866   3.618   3.913   3.466 -0.1299  0.3732  0.0624
    1TYR    SC2  867   3.599   3.808   3.714  0.0830  0.4494  0.1135
    1TYR    SC3  868   3.779   4.002   3.663  0.0057  0.4709 -0.0900
    2HIS     BB  869   3.146   3.915   3.303  0.2745  0.0737  0.1893
    2HIS    SC1  870   3.138   3.805   3.564 -0.1983 -0.1044 -0.1173
    2HIS    SC2  871   2.941   3.678   3.696 -0.2584 -0.0874 -0.1898
    2HIS    SC3  872   3.190   3.683   3.799 -0.3289  0.0264 -0.0177
    3TYR     BB  873   2.799   3.840   3.112  0.1155 -0.0370 -0.0354
    3TYR    SC1  874   2.623   3.763   3.309 -0.5023 -0.2001 -0.3659
    3TYR    SC2  875   2.414   3.818   3.471 -0.1089 -0.0911  0.1396
    3TYR    SC3  876   2.567   3.602   3.519 -0.0381 -0.1126 -0.1596
    1TYR     BB  877   4.357   5.020   2.155  0.0524  0.0280  0.0234
    1TYR    SC1  878   4.246   4.932   2.434  0.1920 -0.3246  0.1811
    1TYR    SC2  879   4.176   5.002   2.686 -0.3186 -0.0309 -0.0229
    1TYR    SC3  880   4.124   4.753   2.596 -0.0301 -0.1737  0.1864
    2HIS     BB  881   4.579   4.788   2.044 -0.3463 -0.2371  0.1063
    2HIS    SC1  882   4.427   4.655   1.787 -0.3900 -0.0627  0.1666
    2HIS    SC2  883   4.227   4.650   1.606  0.0838  0.1001 -0.3980
    2HIS    SC3  884   4.372   4.427   1.653 -0.1529  0.0077 -0.0593
    3TYR     BB  885   4.785   4.633   2.162  0.0001 -0.2894 -0.2260
    3TYR    SC1  886   4.753   4.391   2.394  0.1955  0.0286 -0.0288
    3TYR    SC2  887   4.780   4.273   2.636 -0.3623 -0.0481  0.0118
    3TYR    SC3  888   4.757   4.122   2.413 -0.4383  0.0019 -0.0148
    1TYR     BB  889   3.000   7.137   1.501 -0.0323  0.0561  0.2157
    1TYR    SC1  890   2.964   7.101   1.800 -0.1741 -0.3225 -0.0859
    1TYR    SC2  891   3.010   7.018   2.053 -0.1889  0.1399  0.0798
    1TYR    SC3  892   2.785   6.942   1.925 -0.2119 -0.0479  0.2273
    2HIS     BB  893   3.293   7.189   1.399 -0.1260 -0.1572  0.0707
    2HIS    SC1  894   3.341   7.412   1.141 -0.0799  0.3121  0.5085
    2HIS    SC2  895   3.162   7.516   0.967  0.2126 -0.0019 -0.0143
    2HIS    SC3  896   3.416   7.609   0.972  0.4558 -0.5715 -0.4302
    3TYR     BB  897   3.516   6.914   1.371 -0.1299 -0.2212 -0.3757
    3TYR    SC1  898   3.795   6.861   1.402  0.0515  0.4155  0.3957
    3TYR    SC2  899   3.993   6.762   1.247 -0.3183  0.0569  0.1247
    3TYR    SC3  900   4.036   6.806   1.510  0.1078 -0.0284  0.0780
    1TYR     BB  901   7.122   5.063   1.191 -0.0942  0.0108  0.2150
    1TYR    SC1  902   7.228   5.301   1.350  0.0488 -0.0172 -0.3284
    1TYR    SC2  903   7.329   5.549   1.315 -0.3575  0.2625  0.2616
    1TYR    SC3  904   7.434   5.386   1.503  0.2051 -0.2316 -0.4137
    2HIS     BB  905   6.860   4.950   1.256 -0.2279  0.2442 -0.1928
    2HIS    SC1  906   6.769   4.639   1.124 -0.1015  0.0323 -0.2213
    2HIS    SC2  907   6.637   4.434   1.008  0.0118  0.0475 -0.3796
    2HIS    SC3  908   6.907   4.432   1.019  0.0027  0.0131 -0.0512
    3TYR     BB  909   6.654   5.083   1.385  0.0042 -0.2133 -0.1082
    3TYR    SC1  910   6.738   5.400   1.333  0.0109 -0.0088 -0.2520
    3TYR    SC2  911   6.778   5.667   1.347 -0.1656  0.0270 -0.3908
    3TYR    SC3  912   6.881   5.526   1.142 -0.0853 -0.0105 -0.3255
    1TYR     BB  913   7.856   3.983   1.583 -0.0377  0.1781 -0.1511
    1TYR    SC1  914   8.146   4.107   1.697  0.3392  0.1787 -0.2901
    1TYR    SC2  915   8.282   4.131   1.930 -0.1463 -0.0811  0.0420
    1TYR    SC3  916   8.269   4.340   1.758  0.2787  0.0943  0.2062
    2HIS     BB  917   7.629   4.122   1.817 -0.1043  0.0392  0.0583
    2HIS    SC1  918   7.537   3.928   2.017  0.0322 -0.0291  0.0258
    2HIS    SC2  919   7.547   3.674   2.110  0.1903 -0.0893 -0.1488
    2HIS    SC3  920   7.329   3.826   2.156 -0.0489 -0.3686 -0.3231
    3TYR     BB  921   7.534   4.363   1.752  0.0277 -0.4265 -0.0583
    3TYR    SC1  922   7.797   4.490   1.534 -0.2261 -0.0775 -0.2578
    3TYR    SC2  923   7.994   4.660   1.461 -0.1757 -0.0791 -0.1298
    3TYR    SC3  924   7.991   4.407   1.365 -0.2243 -0.0217 -0.2834
    1TYR     BB  925   4.714   6.699  -0.035  0.1621 -0.0293  0.2605
    1TYR    SC1  926   4.859   6.893   0.119 -0.0849  0.2339 -0.1641
    1TYR    SC2  927   4.797   7.088   0.295 -0.1861  0.0546  0.0039
    1TYR    SC3  928   4.981   7.134   0.102  0.0368  0.2096  0.2443
    2HIS     BB  929   4.437   6.632   0.104 -0.0536 -0.0932  0.3002
    2HIS    SC1  930   4.329   6.389  -0.052  0.5192 -0.0989 -0.2692
    2HIS    SC2  931   4.185   6.294  -0.260 -0.1273  0.0855  0.0625
    2HIS    SC3  932   4.197   6.155  -0.029 -0.2732  0.3425  0.2312
    3TYR     BB  933   4.418   6.630   0.360  0.0348 -0.1147 -0.3878
    3TYR    SC1  934   4.307   6.375   0.456  0.2587 -0.0711  0.0191
    3TYR    SC2  935   4.135   6.273   0.637  0.0638  0.0527 -0.0915
    3TYR    SC3  936   4.201   6.130   0.417 -0.0233  0.0673 -0.1278
    1TYR     BB  937   3.249   6.657   1.762 -0.1432 -0.0934 -0.1502
    1TYR    SC1  938   3.020   6.566   1.989 -0.2881  0.3297  0.2595
    1TYR    SC2  939   2.789   6.459   2.079 -0.2528  0.1194  0.1091
    1TYR    SC3  940   2.987   6.518   2.253 -0.2362 -0.1539  0.1887
    2HIS     BB  941   3.117   6.671   1.478  0.1151 -0.0396  0.0993
    2HIS    SC1  942   2.805   6.681   1.493  0.0239 -0.1728 -0.0944
    2HIS    SC2  943   2.562   6.661   1.376 -0.0176  0.2693 -0.1051
    2HIS    SC3  944   2.594   6.588   1.634 -0.1210  0.0637 -0.1480
    3TYR     BB  945   3.179   6.585   1.200 -0.0942 -0.1157  0.0003
    3TYR    SC1  946   2.992   6.431   1.072  0.2209 -0.1387 -0.2769
    3TYR    SC2  947   2.726   6.407   1.031  0.1122  0.0419  0.2358
    3TYR    SC3  948   2.892   6.207   0.957 -0.1893 -0.1738  0.1138
    1TYR     BB  949   4.664   4.688   3.346 -0.1578  0.1838  0.0414
    1TYR    SC1  950   4.453   4.836   3.531 -0.2329 -0.1616 -0.0466
    1TYR    SC2  951   4.224   4.823   3.674 -0.1236 -0.1223  0.1360
    1TYR    SC3  952   4.320   5.062   3.594 -0.2026 -0.1467 -0.0361
    2HIS     BB  953   4.563   4.396   3.404  0.2144  0.2116  0.0176
    2HIS    SC1  954   4.507   4.396   3.690  0.2178 -0.1739 -0.0102
    2HIS    SC2  955   4.467   4.521   3.926 -0.2999 -0.1682 -0.0861
    2HIS    SC3  956   4.394   4.263   3.897 -0.2781 -0.1571 -0.2508
    3TYR     BB  957   4.454   4.226   3.177  0.2886 -0.1622  0.1081
    3TYR    SC1  958   4.447   4.377   2.926  0.0450  0.1271 -0.1615
    3TYR    SC2  959   4.498   4.558   2.733  0.0265 -0.0584 -0.3455
    3TYR    SC3  960   4.382   4.323   2.669 -0.0672 -0.0848 -0.0918
   7.68218   7.68218   7.68218
