Generated by trjconv : Martini system from ../2_Creating_coordinates/TYR-GLN-TYR_aa.pdb t=   0.00000
 1000
    1TYR     BB    1   6.368   3.957   2.906 -0.4259 -0.0392  0.0703
    1TYR    SC1    2   6.478   3.902   2.659 -0.1876  0.1685 -0.0612
    1TYR    SC2    3   6.717   3.866   2.538 -0.0793  0.1891  0.1421
    1TYR    SC3    4   6.494   3.756   2.432  0.1051 -0.3361  0.2615
    2GLN     BB    5   6.449   3.882   3.146 -0.0687  0.0288  0.0238
    2GLN    SC1    6   6.576   3.552   3.047 -0.2220  0.1097  0.2263
    3TYR     BB    7   6.333   3.998   3.403 -0.0958 -0.2187 -0.2850
    3TYR    SC1    8   6.539   4.232   3.481 -0.0125 -0.0621  0.0123
    3TYR    SC2    9   6.716   4.424   3.547 -0.0051 -0.1671  0.3206
    3TYR    SC3   10   6.714   4.323   3.297 -0.0856  0.3083  0.1145
    1TYR     BB   11   2.712   4.309   3.660 -0.0114 -0.1109  0.1549
    1TYR    SC1   12   2.690   4.114   3.453 -0.0555 -0.2428  0.0750
    1TYR    SC2   13   2.777   4.051   3.206  0.1959 -0.1748  0.1423
    1TYR    SC3   14   2.537   3.961   3.292 -0.1414  0.2231 -0.3146
    2GLN     BB   15   2.734   4.661   3.559 -0.0387  0.0835 -0.1796
    2GLN    SC1   16   3.092   4.834   3.617 -0.0533  0.1311 -0.3148
    3TYR     BB   17   2.618   4.762   3.341 -0.1158 -0.1174 -0.0253
    3TYR    SC1   18   2.671   4.600   3.068 -0.0855  0.1327  0.0346
    3TYR    SC2   19   2.819   4.456   2.893 -0.0708  0.0559  0.1098
    3TYR    SC3   20   2.568   4.378   2.955 -0.0732  0.0785  0.1291
    1TYR     BB   21   4.409   5.313   2.094 -0.4681  0.0955 -0.4044
    1TYR    SC1   22   4.479   5.260   1.784  0.3106 -0.0124  0.0506
    1TYR    SC2   23   4.459   5.109   1.561  0.1263  0.1816 -0.0687
    1TYR    SC3   24   4.558   5.360   1.546 -0.0789  0.2710  0.0292
    2GLN     BB   25   4.542   5.582   2.220  0.0706  0.0399 -0.0429
    2GLN    SC1   26   4.863   5.540   1.946 -0.0863 -0.2118 -0.0886
    3TYR     BB   27   4.401   5.703   2.518  0.2411 -0.0021 -0.0436
    3TYR    SC1   28   4.599   5.642   2.740 -0.1275 -0.0265 -0.1040
    3TYR    SC2   29   4.626   5.440   2.916 -0.1193  0.1702  0.1266
    3TYR    SC3   30   4.642   5.696   3.001 -0.8322  0.2915 -0.0244
    1TYR     BB   31   4.323   3.824   3.572 -0.2046  0.0473 -0.2294
    1TYR    SC1   32   4.328   3.725   3.282 -0.2657 -0.1086  0.0106
    1TYR    SC2   33   4.314   3.763   3.015  0.2437 -0.1910 -0.0403
    1TYR    SC3   34   4.439   3.546   3.114 -0.1743 -0.3060  0.2741
    2GLN     BB   35   3.955   3.859   3.577 -0.0690 -0.3843 -0.0829
    2GLN    SC1   36   3.821   3.970   3.271  0.1819  0.1331 -0.1574
    3TYR     BB   37   3.689   3.662   3.613 -0.0115  0.4632 -0.1847
    3TYR    SC1   38   3.514   3.438   3.546  0.0257  0.1827  0.0698
    3TYR    SC2   39   3.466   3.173   3.549  0.2267  0.1438  0.0095
    3TYR    SC3   40   3.400   3.320   3.333 -0.1538  0.1991  0.1545
    1TYR     BB   41   6.568   4.478   2.725  0.0246 -0.0538 -0.5960
    1TYR    SC1   42   6.361   4.758   2.736 -0.0771  0.0494 -0.0950
    1TYR    SC2   43   6.146   4.919   2.703 -0.1284 -0.0076 -0.0443
    1TYR    SC3   44   6.386   5.025   2.766 -0.1421  0.0562 -0.0978
    2GLN     BB   45   6.760   4.371   2.577  0.3406  0.0729  0.0745
    2GLN    SC1   46   6.907   4.121   2.865 -0.0753 -0.0214 -0.0145
    3TYR     BB   47   6.990   4.473   2.377 -0.0243  0.1422  0.6700
    3TYR    SC1   48   6.927   4.465   2.080  0.2112 -0.0048 -0.0323
    3TYR    SC2   49   6.863   4.659   1.902 -0.0197 -0.1877 -0.1559
    3TYR    SC3   50   6.792   4.403   1.854  0.1967 -0.2914  0.0512
    1TYR     BB   51   2.973   5.984   2.125 -0.0336 -0.2535 -0.1008
    1TYR    SC1   52   3.026   5.813   1.887  0.1705 -0.0218  0.1344
    1TYR    SC2   53   3.270   5.708   1.841  0.1418 -0.0076 -0.0604
    1TYR    SC3   54   3.049   5.554   1.817  0.1319 -0.0279  0.1438
    2GLN     BB   55   2.947   5.939   2.411  0.2507  0.0382 -0.1602
    2GLN    SC1   56   3.107   5.578   2.386 -0.0052  0.1736 -0.0392
    3TYR     BB   57   2.709   6.056   2.593  0.0097 -0.1248 -0.0836
    3TYR    SC1   58   2.454   5.905   2.614 -0.2444 -0.2196  0.1194
    3TYR    SC2   59   2.208   5.853   2.711 -0.2898 -0.2185  0.0074
    3TYR    SC3   60   2.261   5.812   2.450 -0.1076 -0.4330  0.0737
    1TYR     BB   61   4.814   2.914   3.639  0.0057 -0.2234  0.0898
    1TYR    SC1   62   4.687   3.235   3.701  0.1825  0.0520 -0.2496
    1TYR    SC2   63   4.523   3.390   3.552  0.0252  0.1826  0.0472
    1TYR    SC3   64   4.589   3.465   3.803 -0.0171 -0.2080  0.1846
    2GLN     BB   65   4.765   2.753   3.942  0.0756  0.0203 -0.0558
    2GLN    SC1   66   4.589   2.386   3.873  0.0315  0.0914  0.2796
    3TYR     BB   67   4.835   2.839   4.211  0.1160 -0.1371 -0.0120
    3TYR    SC1   68   4.781   3.122   4.254  0.0169 -0.0117  0.2581
    3TYR    SC2   69   4.750   3.385   4.202 -0.1533 -0.1064 -0.1761
    3TYR    SC3   70   4.729   3.294   4.455  0.0261  0.3069 -0.0006
    1TYR     BB   71   6.174   5.286   2.338 -0.2813  0.1198 -0.0871
    1TYR    SC1   72   6.022   5.398   2.083  0.2671  0.0677 -0.1376
    1TYR    SC2   73   5.866   5.400   1.863 -0.2454 -0.3336  0.1913
    1TYR    SC3   74   5.899   5.626   2.006  0.0520 -0.0809 -0.2461
    2GLN     BB   75   6.484   5.389   2.386  0.2791  0.2542 -0.1056
    2GLN    SC1   76   6.503   5.655   2.103 -0.1568  0.1196  0.1157
    3TYR     BB   77   6.645   5.483   2.568  0.2518 -0.0809  0.0617
    3TYR    SC1   78   6.858   5.636   2.701 -0.2853  0.1384 -0.0268
    3TYR    SC2   79   6.963   5.865   2.798 -0.2426  0.0149  0.2298
    3TYR    SC3   80   7.014   5.631   2.922 -0.1035 -0.1684 -0.1535
    1TYR     BB   81   2.116   5.893   1.668 -0.4198 -0.1210 -0.0150
    1TYR    SC1   82   2.219   5.629   1.799 -0.2911 -0.0416  0.1086
    1TYR    SC2   83   2.252   5.555   2.057 -0.1043  0.1581  0.1454
    1TYR    SC3   84   2.349   5.400   1.859 -0.0554  0.1130  0.2042
    2GLN     BB   85   1.962   6.059   1.730 -0.2314  0.1629 -0.0561
    2GLN    SC1   86   1.934   6.016   2.115  0.1818  0.0585 -0.1144
    3TYR     BB   87   1.769   6.284   1.607 -0.0103  0.2302  0.1572
    3TYR    SC1   88   1.893   6.465   1.388  0.2234 -0.2395  0.0572
    3TYR    SC2   89   1.974   6.722   1.373 -0.0388 -0.1576 -0.0287
    3TYR    SC3   90   2.061   6.542   1.193  0.0481 -0.1027 -0.0424
    1TYR     BB   91   5.726   4.075   3.916 -0.3608 -0.2000 -0.1045
    1TYR    SC1   92   6.007   4.227   3.861 -0.1779  0.4265  0.2328
    1TYR    SC2   93   6.230   4.178   4.006 -0.0530 -0.0308 -0.0849
    1TYR    SC3   94   6.231   4.373   3.819  0.1100 -0.0786 -0.1361
    2GLN     BB   95   5.675   3.815   3.972  0.0444 -0.0537 -0.3205
    2GLN    SC1   96   5.820   3.940   4.360  0.4988  0.1975  0.1856
    3TYR     BB   97   5.559   3.588   3.846 -0.0277  0.1452  0.1584
    3TYR    SC1   98   5.290   3.458   3.874  0.0544 -0.0006  0.0027
    3TYR    SC2   99   5.024   3.494   3.846  0.0318 -0.0552  0.1399
    3TYR    SC3  100   5.126   3.244   3.851  0.1107 -0.0315 -0.1218
    1TYR     BB  101   5.625   5.889   3.590  0.2008  0.1635  0.2376
    1TYR    SC1  102   5.428   5.893   3.342 -0.2039 -0.1906  0.0736
    1TYR    SC2  103   5.350   5.960   3.092  0.0227  0.0720  0.0668
    1TYR    SC3  104   5.220   6.061   3.306  0.0820  0.1772  0.0541
    2GLN     BB  105   5.546   5.628   3.728  0.2305  0.2222  0.4059
    2GLN    SC1  106   5.244   5.813   3.866 -0.0048  0.0006 -0.1204
    3TYR     BB  107   5.329   5.396   3.557 -0.4251 -0.0435  0.2384
    3TYR    SC1  108   5.142   5.551   3.370  0.0706 -0.0526 -0.1665
    3TYR    SC2  109   5.057   5.630   3.126 -0.0920  0.0987 -0.0642
    3TYR    SC3  110   4.926   5.712   3.347  0.0513 -0.0399  0.0753
    1TYR     BB  111   1.437   5.568   2.326  0.0925  0.2566 -0.0235
    1TYR    SC1  112   1.429   5.341   2.488  0.2921 -0.0207 -0.1354
    1TYR    SC2  113   1.548   5.150   2.637  0.3008  0.0000 -0.1156
    1TYR    SC3  114   1.287   5.126   2.569  0.3302 -0.0728 -0.2058
    2GLN     BB  115   1.791   5.572   2.296 -0.0781  0.0657 -0.3475
    2GLN    SC1  116   1.823   5.590   2.685 -0.0861 -0.1278 -0.0023
    3TYR     BB  117   1.777   5.585   1.908 -0.0507  0.0640 -0.3951
    3TYR    SC1  118   1.526   5.680   1.841 -0.2661 -0.0153  0.2013
    3TYR    SC2  119   1.462   5.942   1.828  0.1591  0.0952  0.1417
    3TYR    SC3  120   1.268   5.757   1.861 -0.1794  0.3922 -0.0864
    1TYR     BB  121   2.306   4.726   2.312 -0.0761 -0.2342 -0.0635
    1TYR    SC1  122   2.151   4.984   2.427 -0.3606 -0.2227 -0.0786
    1TYR    SC2  123   2.236   5.240   2.436  0.1056 -0.3649 -0.1147
    1TYR    SC3  124   2.034   5.159   2.595  0.1612 -0.0476  0.1291
    2GLN     BB  125   2.569   4.785   2.531  0.0333  0.2551 -0.0076
    2GLN    SC1  126   2.496   5.008   2.797  0.2285 -0.2099 -0.0911
    3TYR     BB  127   2.795   4.678   2.497  0.1057 -0.1116  0.1872
    3TYR    SC1  128   3.048   4.663   2.315  0.0538  0.0601  0.2037
    3TYR    SC2  129   3.308   4.598   2.350 -0.0813 -0.6557  0.0770
    3TYR    SC3  130   3.214   4.649   2.102 -0.0161 -0.0714  0.1559
    1TYR     BB  131   3.886   3.715   4.085 -0.0049  0.0597 -0.0352
    1TYR    SC1  132   3.671   3.943   4.075 -0.2805 -0.2810 -0.0277
    1TYR    SC2  133   3.522   4.162   4.128  0.0519  0.0383 -0.3413
    1TYR    SC3  134   3.436   3.982   3.946 -0.3397 -0.2401  0.0907
    2GLN     BB  135   4.143   3.826   4.047  0.1180 -0.0114  0.3308
    2GLN    SC1  136   4.409   3.701   4.228 -0.1030 -0.0168 -0.0512
    3TYR     BB  137   4.204   4.110   3.958  0.2260  0.1696 -0.3227
    3TYR    SC1  138   4.005   4.276   4.123 -0.3190 -0.2716 -0.2248
    3TYR    SC2  139   3.867   4.464   4.259  0.0283 -0.0293 -0.1912
    3TYR    SC3  140   3.912   4.222   4.371 -0.1777 -0.0355 -0.1163
    1TYR     BB  141   4.197   1.937   4.683  0.0729 -0.3034  0.2264
    1TYR    SC1  142   3.929   1.781   4.689 -0.1007 -0.0108  0.1525
    1TYR    SC2  143   3.665   1.724   4.698 -0.0988 -0.0770 -0.1198
    1TYR    SC3  144   3.845   1.526   4.661 -0.0122 -0.0265  0.0216
    2GLN     BB  145   4.550   1.852   4.731  0.1124  0.0541 -0.2297
    2GLN    SC1  146   4.608   2.293   4.764 -0.2558 -0.1799 -0.0330
    3TYR     BB  147   4.654   1.610   4.800 -0.0001 -0.0362 -0.0156
    3TYR    SC1  148   4.475   1.381   4.887 -0.0196 -0.0827  0.1505
    3TYR    SC2  149   4.205   1.387   4.895 -0.0251 -0.0615 -0.0101
    3TYR    SC3  150   4.336   1.152   4.918 -0.0594 -0.0790  0.0057
    1TYR     BB  151   7.286   4.831   2.097 -0.3055  0.0037 -0.1770
    1TYR    SC1  152   7.323   4.582   1.921  0.2475 -0.0709  0.1455
    1TYR    SC2  153   7.411   4.374   1.773  0.4881  0.0866  0.0591
    1TYR    SC3  154   7.350   4.608   1.654 -0.0385 -0.0034  0.1187
    2GLN     BB  155   7.616   4.800   2.215  0.0798  0.1065 -0.2333
    2GLN    SC1  156   7.792   4.861   1.923  0.0344  0.0275  0.1304
    3TYR     BB  157   7.803   5.013   2.383  0.0215  0.0213 -0.2476
    3TYR    SC1  158   7.821   4.959   2.683  0.0046 -0.1949  0.2222
    3TYR    SC2  159   7.700   4.801   2.865 -0.0534  0.0825  0.4325
    3TYR    SC3  160   7.728   5.065   2.913  0.0309  0.1424  0.0839
    1TYR     BB  161   3.164   5.149   2.119  0.0757  0.0073  0.0983
    1TYR    SC1  162   3.062   5.096   2.406  0.3252 -0.0759  0.1617
    1TYR    SC2  163   3.173   5.020   2.639  0.0539 -0.1428  0.2743
    1TYR    SC3  164   2.943   5.160   2.640  0.2124  0.1313  0.0513
    2GLN     BB  165   2.894   4.995   1.988  0.1125 -0.2995  0.1701
    2GLN    SC1  166   3.020   4.824   1.682  0.0846  0.1033  0.0837
    3TYR     BB  167   2.613   5.071   2.060 -0.1719  0.3234 -0.1319
    3TYR    SC1  168   2.621   5.326   2.216 -0.0051 -0.0336 -0.0906
    3TYR    SC2  169   2.627   5.496   2.426  0.0208 -0.0646 -0.0660
    3TYR    SC3  170   2.663   5.589   2.175 -0.1357 -0.0085 -0.0690
    1TYR     BB  171   1.686   4.160   2.536 -0.0198 -0.1672  0.2277
    1TYR    SC1  172   1.665   3.957   2.737 -0.2776  0.0641 -0.1525
    1TYR    SC2  173   1.535   3.869   2.957  0.1849  0.0014  0.1137
    1TYR    SC3  174   1.573   3.704   2.747 -0.2751  0.0668 -0.0348
    2GLN     BB  175   1.870   4.092   2.305 -0.1506 -0.1684  0.0820
    2GLN    SC1  176   1.922   3.729   2.378  0.1577  0.3106 -0.3563
    3TYR     BB  177   1.832   4.216   2.059 -0.4504  0.1296 -0.1992
    3TYR    SC1  178   2.032   4.357   1.934 -0.1978  0.2705  0.1616
    3TYR    SC2  179   2.103   4.307   1.678 -0.0500  0.2503  0.2055
    3TYR    SC3  180   2.274   4.436   1.843  0.0296 -0.1000  0.4107
    1TYR     BB  181   4.730   4.900   1.982 -0.0792  0.1405 -0.0476
    1TYR    SC1  182   4.820   4.699   2.249  0.2060  0.0677 -0.3129
    1TYR    SC2  183   4.850   4.431   2.255  0.0919  0.0536 -0.3602
    1TYR    SC3  184   4.768   4.562   2.476 -0.1249  0.0151 -0.4144
    2GLN     BB  185   4.747   4.570   1.780  0.1222 -0.1446 -0.0584
    2GLN    SC1  186   4.674   4.655   1.404  0.1355  0.1622 -0.1433
    3TYR     BB  187   4.765   4.230   1.775 -0.3854 -0.2656 -0.5000
    3TYR    SC1  188   4.556   4.165   1.577  0.0047  0.0174 -0.2005
    3TYR    SC2  189   4.333   4.279   1.477 -0.0633  0.1608  0.1026
    3TYR    SC3  190   4.429   4.053   1.366 -0.5068 -0.0509  0.1213
    1TYR     BB  191   4.891   2.298   6.241  0.1074 -0.1467  0.2562
    1TYR    SC1  192   4.726   2.551   6.307 -0.3064 -0.0886 -0.4115
    1TYR    SC2  193   4.632   2.800   6.261 -0.2867  0.0401  0.1467
    1TYR    SC3  194   4.818   2.760   6.453 -0.1822 -0.3936 -0.0309
    2GLN     BB  195   4.925   2.153   6.482 -0.1749 -0.1682 -0.1242
    2GLN    SC1  196   5.000   2.384   6.741 -0.4273  0.1090 -0.1401
    3TYR     BB  197   5.095   1.920   6.527 -0.0069 -0.2767 -0.0302
    3TYR    SC1  198   5.145   1.699   6.686 -0.1409  0.0420 -0.0264
    3TYR    SC2  199   5.175   1.445   6.771  0.0739  0.0380 -0.1075
    3TYR    SC3  200   5.362   1.630   6.831 -0.1852  0.2316  0.1361
    1TYR     BB  201   5.564   4.590   3.092  0.1043 -0.0238 -0.0164
    1TYR    SC1  202   5.736   4.458   3.271  0.0963  0.1947 -0.0310
    1TYR    SC2  203   5.952   4.380   3.413  0.0544  0.0172 -0.0615
    1TYR    SC3  204   5.730   4.463   3.541 -0.0005 -0.1895 -0.0177
    2GLN     BB  205   5.448   4.798   2.951 -0.0354 -0.3209 -0.1747
    2GLN    SC1  206   5.576   5.034   2.684  0.3035 -0.1231 -0.2584
    3TYR     BB  207   5.319   5.077   3.123  0.1055  0.1392  0.2962
    3TYR    SC1  208   5.421   5.356   3.071 -0.2624  0.0992  0.1800
    3TYR    SC2  209   5.619   5.520   3.152  0.0460 -0.1600 -0.0185
    3TYR    SC3  210   5.501   5.560   2.913  0.2777 -0.3467 -0.1698
    1TYR     BB  211   4.911   3.624   2.942 -0.1123  0.1930 -0.0374
    1TYR    SC1  212   4.924   3.316   2.890 -0.3971  0.2211  0.0287
    1TYR    SC2  213   4.826   3.079   2.809 -0.0812  0.0556  0.1084
    1TYR    SC3  214   5.047   3.087   2.964  0.1519  0.4121 -0.2206
    2GLN     BB  215   5.020   3.822   2.753  0.0953  0.0098 -0.1142
    2GLN    SC1  216   5.125   3.631   2.492  0.3004 -0.1064  0.0997
    3TYR     BB  217   4.956   4.113   2.667 -0.1744  0.1669  0.2783
    3TYR    SC1  218   4.928   4.275   2.911 -0.0865  0.0598  0.0166
    3TYR    SC2  219   4.870   4.493   3.059  0.0794  0.0352  0.1207
    3TYR    SC3  220   5.127   4.418   3.023  0.0372 -0.0077 -0.1125
    1TYR     BB  221   6.778   4.929   2.450  0.0795  0.1324  0.2204
    1TYR    SC1  222   6.541   4.763   2.292  0.1018  0.1216 -0.2860
    1TYR    SC2  223   6.462   4.571   2.120 -0.0375 -0.0716 -0.0149
    1TYR    SC3  224   6.279   4.704   2.268  0.0821  0.0720  0.0069
    2GLN     BB  225   6.909   5.102   2.298  0.0241  0.2282  0.3068
    2GLN    SC1  226   6.669   5.144   1.984  0.2154  0.0254  0.0898
    3TYR     BB  227   7.145   5.268   2.050  0.1503 -0.1946  0.1065
    3TYR    SC1  228   7.177   5.590   2.108 -0.2244 -0.0480 -0.3660
    3TYR    SC2  229   7.088   5.843   2.076  0.1933  0.1412 -0.1327
    3TYR    SC3  230   7.117   5.740   2.324 -0.0041 -0.1550 -0.2258
    1TYR     BB  231   5.574   4.960   3.519 -0.2067 -0.3773  0.2496
    1TYR    SC1  232   5.637   5.061   3.773  0.0027 -0.0547  0.0742
    1TYR    SC2  233   5.642   5.091   4.041  0.2436 -0.0342  0.0704
    1TYR    SC3  234   5.847   5.184   3.891  0.1884 -0.1899 -0.1055
    2GLN     BB  235   5.805   4.989   3.319 -0.3079  0.2864  0.0015
    2GLN    SC1  236   6.137   4.860   3.503 -0.2804  0.0732 -0.1992
    3TYR     BB  237   5.897   5.065   3.080 -0.0678  0.0010  0.0291
    3TYR    SC1  238   5.926   5.302   2.907 -0.0797 -0.0977  0.0896
    3TYR    SC2  239   5.895   5.450   2.684  0.0722  0.0094  0.1376
    3TYR    SC3  240   6.135   5.440   2.807 -0.0163 -0.0269  0.3115
    1TYR     BB  241   5.925   2.921   5.584 -0.1704  0.2175  0.0442
    1TYR    SC1  242   5.974   3.116   5.790 -0.0324 -0.1391 -0.0317
    1TYR    SC2  243   6.024   3.217   6.036  0.4026 -0.2531 -0.0630
    1TYR    SC3  244   6.011   3.382   5.822 -0.1626 -0.1290  0.0460
    2GLN     BB  245   5.610   3.005   5.480  0.1106  0.2679 -0.0896
    2GLN    SC1  246   5.564   3.387   5.534  0.0595  0.1730 -0.0368
    3TYR     BB  247   5.364   2.852   5.566 -0.1279  0.0536 -0.2569
    3TYR    SC1  248   5.298   2.684   5.341 -0.0190 -0.0219 -0.1478
    3TYR    SC2  249   5.294   2.465   5.183  0.1455  0.0113 -0.2015
    3TYR    SC3  250   5.287   2.711   5.073 -0.2499  0.0396 -0.1346
    1TYR     BB  251   3.805   1.494   5.161 -0.2199  0.0878 -0.1920
    1TYR    SC1  252   3.779   1.688   5.388 -0.0328  0.1687 -0.0296
    1TYR    SC2  253   3.888   1.755   5.626  0.1569  0.1286 -0.1030
    1TYR    SC3  254   3.683   1.899   5.526  0.2383  0.2979 -0.0312
    2GLN     BB  255   3.754   1.193   5.264 -0.0612  0.0626 -0.1603
    2GLN    SC1  256   3.679   1.253   5.658 -0.0626 -0.1006 -0.3470
    3TYR     BB  257   3.794   0.993   5.074  0.2888 -0.3785 -0.0902
    3TYR    SC1  258   3.996   0.782   5.005 -0.1274  0.1445  0.1003
    3TYR    SC2  259   4.164   0.712   4.806 -0.0557  0.3654  0.0800
    3TYR    SC3  260   4.189   0.599   5.049  0.3323  0.6137  0.1672
    1TYR     BB  261   3.890   3.467   3.146 -0.1650  0.2785 -0.1951
    1TYR    SC1  262   3.742   3.284   2.970 -0.1451  0.0657 -0.0936
    1TYR    SC2  263   3.531   3.145   2.876  0.0508 -0.1279 -0.2611
    1TYR    SC3  264   3.675   3.302   2.710 -0.0827  0.1733 -0.1032
    2GLN     BB  265   4.003   3.316   3.392  0.1682 -0.0308  0.0180
    2GLN    SC1  266   3.852   3.001   3.326  0.0580 -0.2105 -0.2025
    3TYR     BB  267   4.078   3.417   3.706 -0.2591  0.0340 -0.1214
    3TYR    SC1  268   3.898   3.164   3.852  0.2200 -0.2445 -0.1360
    3TYR    SC2  269   3.797   3.049   4.075  0.0038  0.0097 -0.0970
    3TYR    SC3  270   3.722   2.960   3.831  0.1113 -0.1582 -0.0711
    1TYR     BB  271   3.699   3.668   2.345 -0.0517 -0.0174  0.1188
    1TYR    SC1  272   3.775   3.511   2.043 -0.0844 -0.0567  0.0214
    1TYR    SC2  273   3.770   3.324   1.848  0.3859  0.0805 -0.1397
    1TYR    SC3  274   3.963   3.514   1.849  0.0650  0.4261  0.1545
    2GLN     BB  275   3.621   3.936   2.359  0.3056  0.1672 -0.0429
    2GLN    SC1  276   3.841   4.032   2.060  0.2330 -0.1396  0.0285
    3TYR     BB  277   3.462   4.174   2.477 -0.1021 -0.1956 -0.3182
    3TYR    SC1  278   3.357   4.076   2.758 -0.0110  0.2307 -0.4405
    3TYR    SC2  279   3.422   4.162   3.006  0.0062  0.2998 -0.4688
    3TYR    SC3  280   3.167   4.093   2.949  0.0501  0.0356 -0.3596
    1TYR     BB  281   4.143   5.973   1.384  0.1571 -0.0576 -0.1194
    1TYR    SC1  282   3.931   5.883   1.203  0.0172 -0.1141 -0.1296
    1TYR    SC2  283   3.666   5.870   1.149 -0.0688 -0.4038  0.2963
    1TYR    SC3  284   3.837   5.699   1.030  0.0220  0.0925 -0.3589
    2GLN     BB  285   4.192   6.156   1.595 -0.1812 -0.0644 -0.0715
    2GLN    SC1  286   4.266   6.540   1.517 -0.0216  0.2142  0.2411
    3TYR     BB  287   4.054   6.264   1.836  0.0366 -0.2580  0.2783
    3TYR    SC1  288   3.818   6.376   2.031  0.0778  0.3318  0.1331
    3TYR    SC2  289   3.599   6.500   2.128 -0.1338 -0.1902  0.3732
    3TYR    SC3  290   3.790   6.411   2.298  0.1645  0.0615  0.1822
    1TYR     BB  291   1.961   5.257   1.506  0.1764  0.0442 -0.2029
    1TYR    SC1  292   2.033   5.135   1.761  0.1181  0.1546  0.2920
    1TYR    SC2  293   2.025   5.155   2.030  0.3786  0.1131  0.3058
    1TYR    SC3  294   2.098   4.922   1.913 -0.0675  0.0202  0.1883
    2GLN     BB  295   2.098   5.310   1.194  0.2365  0.0778 -0.0878
    2GLN    SC1  296   2.329   5.010   1.188  0.4081  0.3646  0.2420
    3TYR     BB  297   2.292   5.544   1.329 -0.1679  0.0842  0.0159
    3TYR    SC1  298   2.522   5.384   1.449 -0.0479  0.0035  0.2216
    3TYR    SC2  299   2.775   5.426   1.362 -0.1016 -0.0647  0.0236
    3TYR    SC3  300   2.723   5.227   1.537 -0.0069  0.0041  0.1317
    1TYR     BB  301   4.778   1.354   4.338  0.0694 -0.1651 -0.0823
    1TYR    SC1  302   4.489   1.455   4.321  0.0698 -0.1937  0.2555
    1TYR    SC2  303   4.284   1.494   4.492  0.2313 -0.1564  0.4451
    1TYR    SC3  304   4.240   1.497   4.226  0.0077 -0.0280  0.4804
    2GLN     BB  305   4.701   1.044   4.367 -0.1760  0.1250 -0.0315
    2GLN    SC1  306   4.978   0.873   4.106  0.0067  0.1895  0.2810
    3TYR     BB  307   4.491   0.909   4.521 -0.1781  0.1651 -0.0422
    3TYR    SC1  308   4.202   1.068   4.515  0.2170  0.1199 -0.0419
    3TYR    SC2  309   3.980   1.147   4.383  0.1772  0.2337  0.0888
    3TYR    SC3  310   3.967   1.094   4.647  0.2406 -0.0575  0.0378
    1TYR     BB  311   2.897   6.650   0.938  0.0673  0.0336 -0.0045
    1TYR    SC1  312   2.881   6.409   0.747  0.1414  0.1112 -0.1037
    1TYR    SC2  313   2.987   6.169   0.682  0.0349  0.0072  0.0932
    1TYR    SC3  314   2.862   6.317   0.495  0.3662  0.0516 -0.1015
    2GLN     BB  315   2.939   6.681   1.208 -0.1590  0.4155 -0.0020
    2GLN    SC1  316   3.200   6.905   1.220  0.0287 -0.1267  0.1313
    3TYR     BB  317   2.986   6.450   1.398 -0.1802  0.0646 -0.0356
    3TYR    SC1  318   2.802   6.516   1.660 -0.1756 -0.0766 -0.1158
    3TYR    SC2  319   2.715   6.664   1.868 -0.0834  0.0865 -0.1911
    3TYR    SC3  320   2.755   6.399   1.898 -0.0454  0.1128  0.0062
    1TYR     BB  321   2.121   5.617   0.826  0.2414  0.0936 -0.1297
    1TYR    SC1  322   1.884   5.557   0.688 -0.0979  0.1132  0.0637
    1TYR    SC2  323   1.743   5.443   0.487 -0.0936 -0.0088  0.1288
    1TYR    SC3  324   1.751   5.712   0.511 -0.1893  0.0033  0.0346
    2GLN     BB  325   2.334   5.739   0.595  0.4059 -0.0459  0.0381
    2GLN    SC1  326   2.266   5.478   0.358 -0.3462  0.0144 -0.1454
    3TYR     BB  327   2.462   6.031   0.622 -0.1788 -0.0235 -0.1483
    3TYR    SC1  328   2.584   6.010   0.938  0.5583 -0.2603 -0.0365
    3TYR    SC2  329   2.640   5.898   1.177  0.0106  0.1984  0.3432
    3TYR    SC3  330   2.771   6.120   1.098  0.2592 -0.0070  0.1542
    1TYR     BB  331   4.070   5.290   2.412 -0.0154 -0.1536 -0.1905
    1TYR    SC1  332   3.786   5.162   2.380 -0.1788  0.1867  0.1243
    1TYR    SC2  333   3.542   5.135   2.493 -0.1787 -0.2362  0.0428
    1TYR    SC3  334   3.606   4.993   2.272  0.1700 -0.1977  0.1112
    2GLN     BB  335   4.314   5.185   2.567 -0.0987 -0.5643  0.2780
    2GLN    SC1  336   4.179   5.240   2.883  0.0778  0.2980 -0.4182
    3TYR     BB  337   4.570   5.072   2.518 -0.0657 -0.3490  0.2570
    3TYR    SC1  338   4.777   4.979   2.724 -0.0610  0.1497  0.1402
    3TYR    SC2  339   4.830   4.922   2.982 -0.0466 -0.0571  0.0932
    3TYR    SC3  340   5.002   4.846   2.789 -0.1355 -0.0453  0.0085
    1TYR     BB  341   4.250   4.761   2.300 -0.1841 -0.1467  0.0984
    1TYR    SC1  342   3.998   4.760   2.430 -0.0317 -0.3381  0.0730
    1TYR    SC2  343   3.747   4.682   2.493 -0.0038 -0.4525  0.0455
    1TYR    SC3  344   3.899   4.810   2.676 -0.2158 -0.0347 -0.0555
    2GLN     BB  345   4.360   4.521   2.087 -0.0533  0.3283  0.0174
    2GLN    SC1  346   4.285   4.712   1.739  0.1302 -0.3876 -0.2218
    3TYR     BB  347   4.314   4.273   2.098 -0.0314  0.1865  0.4584
    3TYR    SC1  348   4.298   4.044   1.900 -0.0502 -0.2702  0.4597
    3TYR    SC2  349   4.153   3.919   1.709  0.2030  0.2891 -0.1495
    3TYR    SC3  350   4.373   3.800   1.812 -0.0849 -0.1317  0.0135
    1TYR     BB  351   2.332   6.421   0.335 -0.0476 -0.1551 -0.1677
    1TYR    SC1  352   2.109   6.196   0.273  0.1687 -0.0624 -0.0112
    1TYR    SC2  353   1.867   6.205   0.154  0.0833 -0.2914  0.1343
    1TYR    SC3  354   2.000   5.971   0.173  0.2690 -0.1876  0.1514
    2GLN     BB  355   2.320   6.549   0.569  0.3582 -0.2178  0.0698
    2GLN    SC1  356   2.575   6.795   0.490  0.0775  0.1554  0.1937
    3TYR     BB  357   2.385   6.484   0.860 -0.1552 -0.3753 -0.1866
    3TYR    SC1  358   2.414   6.733   0.984  0.1594  0.1102 -0.1553
    3TYR    SC2  359   2.423   6.896   1.199  0.3014  0.1481 -0.1890
    3TYR    SC3  360   2.526   6.978   0.963  0.1149  0.1206 -0.2820
    1TYR     BB  361   2.603   6.585   2.378  0.0143 -0.1307  0.0697
    1TYR    SC1  362   2.895   6.441   2.344  0.0518 -0.0138  0.1219
    1TYR    SC2  363   3.160   6.391   2.350  0.0674  0.0080 -0.1870
    1TYR    SC3  364   3.064   6.592   2.198 -0.1154  0.1041  0.0469
    2GLN     BB  365   2.708   6.869   2.462 -0.2337 -0.2351 -0.1254
    2GLN    SC1  366   2.513   7.158   2.278  0.2101 -0.0539 -0.2323
    3TYR     BB  367   2.655   6.947   2.718 -0.1132  0.3414 -0.0509
    3TYR    SC1  368   2.584   6.690   2.883 -0.2295  0.0395 -0.2935
    3TYR    SC2  369   2.539   6.426   2.915  0.2471 -0.0458 -0.2345
    3TYR    SC3  370   2.363   6.606   3.013 -0.0142 -0.3357 -0.1502
    1TYR     BB  371   4.723   1.522   6.528  0.4452  0.2323 -0.1927
    1TYR    SC1  372   4.750   1.270   6.714 -0.3222 -0.0215  0.0085
    1TYR    SC2  373   4.709   1.005   6.744 -0.0726 -0.0901 -0.2124
    1TYR    SC3  374   4.704   1.167   6.959  0.0559 -0.3169 -0.0325
    2GLN     BB  375   4.852   1.523   6.307  0.1556  0.1829  0.0699
    2GLN    SC1  376   5.152   1.299   6.215  0.4979  0.0953  0.0959
    3TYR     BB  377   4.924   1.753   6.075 -0.0286 -0.3423 -0.3076
    3TYR    SC1  378   5.075   1.697   5.826 -0.3203  0.0744 -0.2357
    3TYR    SC2  379   5.299   1.561   5.764 -0.0729  0.3131  0.0888
    3TYR    SC3  380   5.190   1.730   5.584  0.1427  0.3685  0.0062
    1TYR     BB  381   4.976   1.034   5.688  0.1120 -0.3947  0.0569
    1TYR    SC1  382   4.824   0.826   5.692 -0.1725 -0.0062 -0.3569
    1TYR    SC2  383   4.654   0.657   5.815 -0.0333  0.1744  0.1119
    1TYR    SC3  384   4.837   0.562   5.641 -0.1011 -0.1250  0.1973
    2GLN     BB  385   5.259   1.133   5.610  0.3825 -0.0824  0.1662
    2GLN    SC1  386   5.500   1.127   5.897 -0.1182  0.0263 -0.1520
    3TYR     BB  387   5.320   1.237   5.399 -0.0754 -0.0941  0.0951
    3TYR    SC1  388   5.512   1.433   5.346  0.2442  0.1439 -0.1495
    3TYR    SC2  389   5.578   1.657   5.209  0.0345  0.2353 -0.1057
    3TYR    SC3  390   5.758   1.458   5.237  0.1861  0.3502 -0.2410
    1TYR     BB  391   3.941   2.027   6.939 -0.0702  0.1125  0.1310
    1TYR    SC1  392   3.792   1.772   6.955 -0.2242  0.1500  0.0147
    1TYR    SC2  393   3.578   1.630   6.873 -0.1084 -0.1419  0.1972
    1TYR    SC3  394   3.807   1.503   6.938  0.1889  0.1752 -0.1697
    2GLN     BB  395   4.136   1.975   7.169 -0.0654 -0.2448 -0.2285
    2GLN    SC1  396   3.898   2.132   7.482 -0.0320 -0.1419  0.1257
    3TYR     BB  397   4.387   2.016   7.314 -0.1738  0.0540 -0.0974
    3TYR    SC1  398   4.626   2.221   7.241 -0.1800 -0.1544 -0.1255
    3TYR    SC2  399   4.838   2.379   7.184 -0.1753 -0.0451  0.1739
    3TYR    SC3  400   4.675   2.441   7.390 -0.3737 -0.2484  0.0832
    1TYR     BB  401   4.130   4.414   3.552  0.2326  0.1072  0.0448
    1TYR    SC1  402   3.870   4.351   3.653 -0.0508  0.1160 -0.1726
    1TYR    SC2  403   3.616   4.258   3.654 -0.0620  0.1432  0.0682
    1TYR    SC3  404   3.685   4.465   3.814  0.0051  0.4416 -0.3288
    2GLN     BB  405   4.262   4.704   3.422 -0.1917  0.1034 -0.2398
    2GLN    SC1  406   4.124   5.053   3.533 -0.0713 -0.0862 -0.1347
    3TYR     BB  407   4.590   4.784   3.404 -0.6309 -0.2521  0.0957
    3TYR    SC1  408   4.638   5.070   3.397 -0.2318  0.0008  0.0506
    3TYR    SC2  409   4.589   5.335   3.402 -0.0454  0.0381 -0.0233
    3TYR    SC3  410   4.823   5.243   3.305 -0.1793 -0.1646 -0.1627
    1TYR     BB  411   2.114   4.452   2.698  0.5187  0.1213 -0.1073
    1TYR    SC1  412   2.162   4.173   2.758  0.1771  0.1668 -0.0270
    1TYR    SC2  413   2.367   3.998   2.749  0.0089 -0.0340 -0.0518
    1TYR    SC3  414   2.117   3.910   2.801 -0.0804  0.2001 -0.0714
    2GLN     BB  415   2.140   4.656   2.895 -0.1282 -0.0848 -0.0027
    2GLN    SC1  416   1.764   4.728   2.867  0.0572  0.1711  0.0599
    3TYR     BB  417   2.178   4.814   3.103 -0.1200 -0.2474  0.0054
    3TYR    SC1  418   1.937   4.793   3.332 -0.1951 -0.0906  0.0726
    3TYR    SC2  419   1.816   4.660   3.534 -0.1121  0.1178  0.2648
    3TYR    SC3  420   1.690   4.866   3.413 -0.1571  0.0005  0.1083
    1TYR     BB  421   5.525   1.092   4.960 -0.1032  0.0817 -0.1719
    1TYR    SC1  422   5.542   1.035   4.655 -0.1117 -0.2174  0.0416
    1TYR    SC2  423   5.505   1.019   4.388 -0.2811  0.1910  0.0309
    1TYR    SC3  424   5.721   0.902   4.501 -0.2969 -0.1374 -0.2540
    2GLN     BB  425   5.379   0.831   5.075 -0.0764 -0.1451 -0.0930
    2GLN    SC1  426   5.468   0.553   4.806 -0.1369  0.3530 -0.0930
    3TYR     BB  427   5.123   0.800   5.215  0.0706  0.1506  0.0668
    3TYR    SC1  428   4.823   0.686   5.145 -0.3583  0.1960  0.4818
    3TYR    SC2  429   4.622   0.508   5.117 -0.1798  0.0431  0.0772
    3TYR    SC3  430   4.605   0.749   4.997  0.1248 -0.2045 -0.5157
    1TYR     BB  431   4.223   1.772   5.133 -0.0489 -0.0964  0.0686
    1TYR    SC1  432   4.241   1.595   5.355 -0.0383  0.0358 -0.0906
    1TYR    SC2  433   4.229   1.329   5.310 -0.0364 -0.0153  0.1924
    1TYR    SC3  434   4.184   1.427   5.558 -0.3647  0.2762  0.0281
    2GLN     BB  435   4.427   2.066   5.173  0.2686  0.0880 -0.2955
    2GLN    SC1  436   4.126   2.195   5.401 -0.3829  0.0545  0.2785
    3TYR     BB  437   4.590   2.325   5.341 -0.4629  0.2560 -0.4021
    3TYR    SC1  438   4.871   2.238   5.529  0.0553  0.2055 -0.2942
    3TYR    SC2  439   5.004   2.124   5.734 -0.2411 -0.2432 -0.3346
    3TYR    SC3  440   5.141   2.241   5.533  0.0608 -0.0854 -0.0495
    1TYR     BB  441   1.287   4.644   2.577  0.0738 -0.1876 -0.1899
    1TYR    SC1  442   1.503   4.758   2.391  0.1877  0.0706  0.0867
    1TYR    SC2  443   1.676   4.927   2.272 -0.0212  0.0796 -0.2193
    1TYR    SC3  444   1.737   4.665   2.295  0.1545  0.1316 -0.0554
    2GLN     BB  445   1.060   4.657   2.552  0.0106  0.1385 -0.3887
    2GLN    SC1  446   0.826   4.732   2.256  0.1108  0.0654 -0.2349
    3TYR     BB  447   0.903   4.755   2.835 -0.3443  0.1116  0.2489
    3TYR    SC1  448   0.642   4.777   2.915  0.1350 -0.1423  0.1873
    3TYR    SC2  449   0.494   4.897   3.106 -0.1079 -0.0498 -0.0515
    3TYR    SC3  450   0.447   4.639   3.041 -0.2973  0.0304 -0.2510
    1TYR     BB  451   4.485   2.996   5.827 -0.2387 -0.1431  0.1720
    1TYR    SC1  452   4.181   2.910   5.767 -0.1048  0.0950 -0.3490
    1TYR    SC2  453   4.005   2.706   5.752 -0.0583  0.0375 -0.1482
    1TYR    SC3  454   3.961   2.910   5.923  0.0676  0.0240 -0.0981
    2GLN     BB  455   4.600   2.878   5.528 -0.2222  0.0951 -0.0048
    2GLN    SC1  456   4.321   2.744   5.293 -0.1940  0.0027  0.1617
    3TYR     BB  457   4.849   2.809   5.562 -0.0407  0.0919 -0.1556
    3TYR    SC1  458   4.988   2.654   5.795 -0.3220  0.0207  0.3397
    3TYR    SC2  459   5.192   2.542   5.932 -0.1049 -0.1040 -0.0643
    3TYR    SC3  460   5.043   2.735   6.046  0.1613 -0.0916  0.2841
    1TYR     BB  461   5.320   2.546   6.399  0.1776  0.1552 -0.0880
    1TYR    SC1  462   5.450   2.299   6.573 -0.1176  0.0044 -0.1779
    1TYR    SC2  463   5.464   2.144   6.793 -0.1238 -0.1392 -0.2773
    1TYR    SC3  464   5.603   2.076   6.571  0.1432  0.1777 -0.2157
    2GLN     BB  465   5.305   2.789   6.508  0.1745 -0.0118 -0.2061
    2GLN    SC1  466   5.115   2.876   6.841  0.0124  0.0185 -0.2771
    3TYR     BB  467   5.288   3.144   6.470 -0.0489 -0.0260  0.0746
    3TYR    SC1  468   5.025   3.197   6.306  0.1163  0.1946 -0.0298
    3TYR    SC2  469   4.805   3.151   6.156  0.0681 -0.0616  0.1131
    3TYR    SC3  470   4.828   3.382   6.294 -0.0404  0.0311 -0.0205
    1TYR     BB  471   2.829   3.831   2.692 -0.0131  0.0105 -0.2592
    1TYR    SC1  472   2.942   3.715   3.005  0.0360  0.0167 -0.0229
    1TYR    SC2  473   3.049   3.569   3.206 -0.0033  0.0155 -0.0028
    1TYR    SC3  474   2.782   3.608   3.195  0.0172  0.1830  0.0569
    2GLN     BB  475   3.017   3.834   2.504 -0.0903  0.2101  0.1623
    2GLN    SC1  476   2.993   4.231   2.463  0.0464  0.2991 -0.0784
    3TYR     BB  477   3.216   3.675   2.311  0.1335  0.0692 -0.3385
    3TYR    SC1  478   3.196   3.511   2.036 -0.2557 -0.1098  0.1602
    3TYR    SC2  479   3.075   3.507   1.794  0.0991 -0.0265 -0.0273
    3TYR    SC3  480   3.230   3.299   1.871  0.0302 -0.0289  0.1083
    1TYR     BB  481   3.443   5.089   3.280 -0.1015  0.0804 -0.0972
    1TYR    SC1  482   3.143   5.052   3.138  0.0329 -0.1106  0.0260
    1TYR    SC2  483   2.888   5.119   3.192  0.0075 -0.1683 -0.0211
    1TYR    SC3  484   2.941   4.931   3.006  0.0918  0.0024 -0.1730
    2GLN     BB  485   3.662   5.146   3.056 -0.1369  0.2287 -0.3929
    2GLN    SC1  486   3.874   5.459   3.259  0.2334 -0.0778  0.0668
    3TYR     BB  487   3.913   4.923   3.139 -0.0045  0.0232 -0.0729
    3TYR    SC1  488   3.789   4.686   3.277 -0.2928  0.0450  0.0933
    3TYR    SC2  489   3.549   4.635   3.389 -0.1021 -0.2734  0.3827
    3TYR    SC3  490   3.669   4.447   3.237 -0.2994  0.1049 -0.2921
    1TYR     BB  491   2.255   4.383   3.388  0.0893 -0.1273  0.0828
    1TYR    SC1  492   2.243   4.554   3.635  0.0833  0.2661 -0.0282
    1TYR    SC2  493   2.201   4.651   3.884  0.2903  0.2309  0.0227
    1TYR    SC3  494   2.223   4.821   3.675 -0.1512  0.2503 -0.0204
    2GLN     BB  495   2.057   4.218   3.205  0.1185 -0.1381  0.0390
    2GLN    SC1  496   2.086   3.918   3.400 -0.0397  0.0053  0.1871
    3TYR     BB  497   1.779   4.322   3.172  0.0447 -0.1727  0.0966
    3TYR    SC1  498   1.594   4.159   3.334  0.1330  0.0608  0.0215
    3TYR    SC2  499   1.417   4.045   3.503  0.1431 -0.0630 -0.0497
    3TYR    SC3  500   1.581   3.890   3.355  0.2173  0.0477 -0.0847
    1TYR     BB  501   6.303   5.243   3.229  0.0016 -0.1677 -0.1054
    1TYR    SC1  502   6.177   5.471   3.376 -0.0423 -0.1749  0.1864
    1TYR    SC2  503   5.941   5.446   3.505 -0.2220  0.0848 -0.0761
    1TYR    SC3  504   5.999   5.674   3.372  0.2395  0.0796  0.0941
    2GLN     BB  505   6.626   5.349   3.071 -0.1798  0.1170 -0.2574
    2GLN    SC1  506   6.717   5.554   3.370 -0.0867 -0.1128  0.0603
    3TYR     BB  507   6.871   5.157   2.916  0.2853  0.2138 -0.1334
    3TYR    SC1  508   7.133   5.177   3.069  0.2200 -0.2289  0.1629
    3TYR    SC2  509   7.371   5.062   3.127  0.2196 -0.1059  0.4257
    3TYR    SC3  510   7.308   5.303   3.233 -0.0180 -0.1318  0.3501
    1TYR     BB  511   1.199   4.115   2.587 -0.1775  0.2257 -0.1677
    1TYR    SC1  512   1.249   3.933   2.362  0.0036 -0.0359 -0.0761
    1TYR    SC2  513   1.446   3.905   2.180  0.2145 -0.0536  0.1483
    1TYR    SC3  514   1.335   3.687   2.293  0.1403 -0.0406  0.1012
    2GLN     BB  515   0.919   4.178   2.623  0.1139 -0.2391  0.0756
    2GLN    SC1  516   0.881   4.218   2.226 -0.1544 -0.4785 -0.2641
    3TYR     BB  517   0.756   4.284   2.734  0.3014 -0.1413  0.2119
    3TYR    SC1  518   0.524   4.436   2.566  0.2175  0.4953 -0.2763
    3TYR    SC2  519   0.279   4.544   2.605 -0.0157 -0.0750 -0.0149
    3TYR    SC3  520   0.400   4.566   2.365 -0.2085  0.4127 -0.0817
    1TYR     BB  521   3.970   5.022   1.453 -0.0314  0.0732 -0.1762
    1TYR    SC1  522   4.089   4.798   1.321  0.4610 -0.0118 -0.0558
    1TYR    SC2  523   3.926   4.585   1.289 -0.2015  0.4623 -0.1066
    1TYR    SC3  524   4.175   4.581   1.186 -0.0845 -0.3598  0.1118
    2GLN     BB  525   3.794   5.009   1.680  0.0368  0.0772 -0.0397
    2GLN    SC1  526   4.008   5.117   1.950 -0.1270 -0.1657 -0.0052
    3TYR     BB  527   3.579   4.865   1.779  0.0875 -0.0836 -0.0783
    3TYR    SC1  528   3.668   4.684   1.974 -0.0167 -0.1631 -0.0861
    3TYR    SC2  529   3.902   4.553   2.002 -0.1059 -0.3288 -0.0979
    3TYR    SC3  530   3.678   4.452   2.112 -0.1886 -0.2169 -0.1608
    1TYR     BB  531   4.070   5.703   2.088 -0.1360  0.0266  0.0734
    1TYR    SC1  532   3.778   5.561   2.047 -0.1997  0.0289  0.0554
    1TYR    SC2  533   3.536   5.502   2.151 -0.2251 -0.1940 -0.1185
    1TYR    SC3  534   3.618   5.382   1.924  0.0084 -0.0436 -0.1187
    2GLN     BB  535   4.173   5.703   1.818  0.0256 -0.0741 -0.1919
    2GLN    SC1  536   4.536   5.875   1.767 -0.0486  0.1620  0.1016
    3TYR     BB  537   4.092   5.528   1.606  0.1430 -0.1694  0.2601
    3TYR    SC1  538   3.809   5.560   1.516 -0.0350  0.2002 -0.0088
    3TYR    SC2  539   3.543   5.607   1.495 -0.0131  0.1733 -0.4575
    3TYR    SC3  540   3.661   5.420   1.339  0.1898 -0.2068  0.1102
    1TYR     BB  541   0.991   4.767   3.333 -0.0069  0.1348  0.2360
    1TYR    SC1  542   0.821   4.506   3.319  0.3075 -0.0035 -0.0330
    1TYR    SC2  543   0.742   4.260   3.241  0.0875  0.0825 -0.0898
    1TYR    SC3  544   0.835   4.299   3.492 -0.1759 -0.0008  0.0262
    2GLN     BB  545   1.232   4.554   3.123 -0.0766 -0.0488 -0.1256
    2GLN    SC1  546   1.355   4.893   2.982 -0.0998 -0.2200 -0.4622
    3TYR     BB  547   1.276   4.322   3.018  0.0786 -0.0326 -0.2745
    3TYR    SC1  548   1.144   4.073   3.106 -0.0332 -0.1520 -0.0845
    3TYR    SC2  549   1.102   3.831   2.993 -0.1923 -0.0901 -0.1617
    3TYR    SC3  550   0.979   3.895   3.224 -0.1473 -0.0843 -0.1392
    1TYR     BB  551   4.569   2.638   6.884  0.1357 -0.0768  0.0592
    1TYR    SC1  552   4.573   2.942   6.808  0.3492 -0.0450  0.1218
    1TYR    SC2  553   4.683   3.119   6.636 -0.1641  0.1790  0.0009
    1TYR    SC3  554   4.690   3.167   6.902 -0.0185  0.2137 -0.0083
    2GLN     BB  555   4.281   2.536   6.779  0.0752 -0.1681 -0.1595
    2GLN    SC1  556   4.054   2.805   6.910 -0.0003 -0.1448  0.0140
    3TYR     BB  557   4.294   2.241   6.728 -0.2322  0.0046  0.0672
    3TYR    SC1  558   4.396   2.159   6.471 -0.0916 -0.1376  0.0330
    3TYR    SC2  559   4.451   2.105   6.213  0.2848  0.0702  0.0615
    3TYR    SC3  560   4.525   1.931   6.406  0.1774  0.0065  0.0463
    1TYR     BB  561   2.821   5.643   2.867  0.0690  0.0630  0.0343
    1TYR    SC1  562   3.076   5.522   2.935  0.2226 -0.1656  0.0990
    1TYR    SC2  563   3.291   5.402   2.825  0.1561 -0.0115 -0.2138
    1TYR    SC3  564   3.306   5.504   3.074  0.3611 -0.2312 -0.1313
    2GLN     BB  565   2.544   5.518   2.936 -0.0438 -0.0273  0.0379
    2GLN    SC1  566   2.406   5.832   3.142  0.2276 -0.0184  0.0742
    3TYR     BB  567   2.262   5.419   2.932 -0.0737 -0.1132 -0.0141
    3TYR    SC1  568   2.039   5.315   3.083  0.0278 -0.0505  0.0975
    3TYR    SC2  569   1.877   5.260   3.292  0.1821 -0.0820  0.2105
    3TYR    SC3  570   1.810   5.176   3.045  0.0876 -0.2039  0.2759
    1TYR     BB  571   3.443   2.107   6.793  0.1494 -0.0163 -0.3297
    1TYR    SC1  572   3.303   2.257   7.001  0.5036 -0.0744  0.0352
    1TYR    SC2  573   3.245   2.520   7.013 -0.1181 -0.1968  0.1862
    1TYR    SC3  574   3.155   2.354   7.205  0.3039 -0.5245  0.1190
    2GLN     BB  575   3.324   2.163   6.527  0.1499 -0.1969 -0.0287
    2GLN    SC1  576   3.022   2.404   6.476  0.2214  0.2910 -0.0673
    3TYR     BB  577   3.460   2.076   6.309 -0.1026 -0.1005  0.0954
    3TYR    SC1  578   3.745   1.941   6.384 -0.1132 -0.1077 -0.0781
    3TYR    SC2  579   3.849   1.709   6.477  0.0053 -0.0768 -0.1312
    3TYR    SC3  580   4.012   1.899   6.375 -0.0664  0.1230  0.1130
    1TYR     BB  581   3.360   4.412   1.663 -0.1587  0.1703  0.1596
    1TYR    SC1  582   3.657   4.322   1.641 -0.0692 -0.3269 -0.0620
    1TYR    SC2  583   3.924   4.309   1.676 -0.0268  0.3517  0.0431
    1TYR    SC3  584   3.810   4.190   1.463  0.3176 -0.1223  0.1027
    2GLN     BB  585   3.291   4.570   1.386 -0.2682 -0.1937 -0.0930
    2GLN    SC1  586   2.964   4.426   1.306 -0.0121  0.1334  0.2538
    3TYR     BB  587   3.453   4.826   1.314  0.1929  0.1147  0.1150
    3TYR    SC1  588   3.376   5.090   1.432 -0.0405 -0.0274 -0.0381
    3TYR    SC2  589   3.212   5.301   1.392 -0.1272 -0.0752  0.0585
    3TYR    SC3  590   3.297   5.242   1.641 -0.0928 -0.1467  0.0300
    1TYR     BB  591   3.266   6.277   1.793 -0.0884 -0.0503 -0.4170
    1TYR    SC1  592   3.521   6.160   1.792  0.1177  0.2169  0.1709
    1TYR    SC2  593   3.697   6.056   1.615 -0.0472 -0.0814  0.1746
    1TYR    SC3  594   3.668   5.945   1.860 -0.1465  0.0458  0.2219
    2GLN     BB  595   3.376   6.611   1.688 -0.0902  0.1172  0.0169
    2GLN    SC1  596   3.765   6.582   1.594  0.2095 -0.2119  0.1632
    3TYR     BB  597   3.228   6.861   1.701  0.0482 -0.0018 -0.1108
    3TYR    SC1  598   3.522   7.074   1.607  0.2232  0.1227  0.3151
    3TYR    SC2  599   3.786   7.130   1.602  0.2262  0.1043 -0.0023
    3TYR    SC3  600   3.658   7.067   1.372 -0.0754  0.2077  0.1322
    1TYR     BB  601   6.030   1.094   5.019 -0.0084  0.0686  0.1144
    1TYR    SC1  602   5.920   0.808   4.968 -0.1368 -0.2430 -0.0623
    1TYR    SC2  603   5.861   0.584   5.107 -0.2033 -0.2494 -0.1002
    1TYR    SC3  604   6.048   0.577   4.913  0.0931 -0.1765  0.1734
    2GLN     BB  605   6.023   1.301   4.793  0.1534 -0.0769  0.0304
    2GLN    SC1  606   6.258   1.077   4.544  0.1800  0.2849  0.2142
    3TYR     BB  607   5.788   1.446   4.654  0.2017  0.1632 -0.0264
    3TYR    SC1  608   5.923   1.661   4.493  0.2150  0.0350  0.0437
    3TYR    SC2  609   6.102   1.764   4.319  0.1121 -0.0943 -0.1425
    3TYR    SC3  610   5.976   1.926   4.495  0.1439  0.0561 -0.2551
    1TYR     BB  611   6.201   4.202   2.449 -0.0912  0.2269  0.2203
    1TYR    SC1  612   6.419   4.172   2.233  0.1017 -0.2390  0.2144
    1TYR    SC2  613   6.675   4.104   2.182  0.3231  0.5315  0.1501
    1TYR    SC3  614   6.488   4.082   1.988  0.4134  0.3026  0.0844
    2GLN     BB  615   5.884   4.154   2.325 -0.0820 -0.2044 -0.0175
    2GLN    SC1  616   6.049   3.823   2.160 -0.2697 -0.0492 -0.1199
    3TYR     BB  617   5.735   4.342   2.159 -0.0251 -0.1189  0.1524
    3TYR    SC1  618   5.741   4.657   2.236  0.1363  0.1888 -0.0557
    3TYR    SC2  619   5.857   4.869   2.357 -0.5161  0.3366  0.3819
    3TYR    SC3  620   5.629   4.902   2.216 -0.2369  0.0179 -0.1927
    1TYR     BB  621   5.156   1.505   4.983 -0.0758 -0.1257  0.0172
    1TYR    SC1  622   5.091   1.273   4.839  0.0071 -0.0828 -0.3161
    1TYR    SC2  623   4.863   1.128   4.827 -0.0592 -0.0635  0.3055
    1TYR    SC3  624   5.072   1.064   4.669 -0.3773 -0.2823 -0.0480
    2GLN     BB  625   5.307   1.706   4.764  0.0640  0.4157 -0.0629
    2GLN    SC1  626   5.035   1.825   4.493 -0.0649 -0.1514  0.0308
    3TYR     BB  627   5.532   1.851   4.738 -0.1777 -0.2798 -0.1143
    3TYR    SC1  628   5.576   2.146   4.812  0.3018  0.3786 -0.1449
    3TYR    SC2  629   5.512   2.401   4.753  0.0551  0.3788  0.1018
    3TYR    SC3  630   5.663   2.347   4.970 -0.0161  0.3076  0.1343
    1TYR     BB  631   0.562   3.859   2.999  0.0276 -0.2289 -0.0121
    1TYR    SC1  632   0.327   4.100   3.058 -0.2567 -0.1581  0.0352
    1TYR    SC2  633   0.192   4.274   2.902 -0.0994 -0.0407  0.0274
    1TYR    SC3  634   0.138   4.259   3.166  0.0672  0.2148  0.0809
    2GLN     BB  635   0.477   3.610   2.909 -0.1615  0.1560 -0.2931
    2GLN    SC1  636   0.249   3.614   3.225 -0.3510  0.1965  0.0200
    3TYR     BB  637   0.520   3.379   2.797 -0.1633  0.0431 -0.1457
    3TYR    SC1  638   0.474   3.320   2.514  0.0191 -0.1416 -0.0366
    3TYR    SC2  639   0.579   3.406   2.280  0.3265 -0.2116  0.0691
    3TYR    SC3  640   0.333   3.489   2.357  0.2751 -0.0861 -0.2147
    1TYR     BB  641   3.168   4.112   2.065 -0.1168  0.0056 -0.0793
    1TYR    SC1  642   2.880   4.296   1.992  0.0636  0.1406 -0.0861
    1TYR    SC2  643   2.680   4.470   2.049  0.0641  0.0487  0.2209
    1TYR    SC3  644   2.730   4.399   1.793 -0.2417  0.1370  0.1323
    2GLN     BB  645   3.317   3.988   1.886 -0.3441 -0.2535 -0.2989
    2GLN    SC1  646   3.049   4.016   1.599 -0.3488 -0.0823 -0.2587
    3TYR     BB  647   3.517   3.828   1.750 -0.2534 -0.1807 -0.0559
    3TYR    SC1  648   3.480   3.601   1.627  0.2928  0.3065 -0.2930
    3TYR    SC2  649   3.313   3.492   1.445  0.1744 -0.3266  0.1524
    3TYR    SC3  650   3.549   3.373   1.500  0.2573 -0.0875  0.3388
    1TYR     BB  651   4.303   1.180   6.480  0.0980  0.1948 -0.2023
    1TYR    SC1  652   4.506   1.126   6.277 -0.1033 -0.1111  0.2041
    1TYR    SC2  653   4.569   1.045   6.027 -0.0547  0.2568  0.0888
    1TYR    SC3  654   4.732   0.985   6.234 -0.1627 -0.1650  0.0630
    2GLN     BB  655   4.263   1.416   6.753 -0.4469  0.3156  0.0209
    2GLN    SC1  656   4.096   1.120   6.944 -0.0410 -0.3158  0.1754
    3TYR     BB  657   4.277   1.710   6.781  0.0698 -0.3196  0.0646
    3TYR    SC1  658   4.528   1.797   6.925  0.0417  0.0702  0.0703
    3TYR    SC2  659   4.782   1.724   6.981  0.0500  0.0030 -0.0489
    3TYR    SC3  660   4.727   1.978   6.905  0.0364  0.0998  0.2673
    1TYR     BB  661   3.317   5.911   2.744  0.0420  0.0245  0.1250
    1TYR    SC1  662   3.424   5.952   2.465  0.0101 -0.0017  0.0262
    1TYR    SC2  663   3.414   5.997   2.199 -0.2010  0.1970  0.0638
    1TYR    SC3  664   3.652   5.956   2.321 -0.1013  0.1198 -0.1510
    2GLN     BB  665   3.159   6.169   2.892  0.0835 -0.2438  0.1640
    2GLN    SC1  666   2.953   6.016   3.129 -0.2979 -0.2748  0.0271
    3TYR     BB  667   3.016   6.441   2.825  0.0279 -0.0483  0.0274
    3TYR    SC1  668   3.134   6.709   2.693  0.0878  0.0654 -0.1916
    3TYR    SC2  669   3.289   6.842   2.516  0.0769  0.2300 -0.0805
    3TYR    SC3  670   3.142   6.979   2.696 -0.0650  0.0702 -0.0712
    1TYR     BB  671   4.054   4.337   2.968 -0.1039  0.2001 -0.0632
    1TYR    SC1  672   4.256   4.551   2.897  0.1462  0.0212  0.0265
    1TYR    SC2  673   4.335   4.805   2.945  0.0889  0.0940 -0.2432
    1TYR    SC3  674   4.500   4.634   2.817  0.0728  0.0375 -0.1892
    2GLN     BB  675   3.959   4.091   2.825 -0.3106  0.1012 -0.0116
    2GLN    SC1  676   3.946   4.261   2.495 -0.2865  0.0639  0.2647
    3TYR     BB  677   3.899   3.835   2.754  0.0832  0.2225  0.0642
    3TYR    SC1  678   3.631   3.744   2.846 -0.0261 -0.1635  0.2955
    3TYR    SC2  679   3.445   3.684   3.031 -0.3460  0.0448  0.0553
    3TYR    SC3  680   3.394   3.640   2.769 -0.2705  0.5661 -0.0602
    1TYR     BB  681   3.957   3.214   2.324  0.0621 -0.1991 -0.1908
    1TYR    SC1  682   3.666   3.093   2.296  0.2223 -0.0988 -0.1138
    1TYR    SC2  683   3.443   3.244   2.314  0.2330 -0.0653 -0.2542
    1TYR    SC3  684   3.450   3.033   2.145  0.1776 -0.2959  0.0223
    2GLN     BB  685   4.154   3.477   2.390  0.0855 -0.1005 -0.2522
    2GLN    SC1  686   4.181   3.346   2.735 -0.2655 -0.1730 -0.3766
    3TYR     BB  687   4.166   3.722   2.300 -0.1119  0.0366 -0.2079
    3TYR    SC1  688   4.299   3.939   2.484 -0.0108 -0.0833  0.3089
    3TYR    SC2  689   4.491   3.879   2.665  0.0512 -0.0028  0.2709
    3TYR    SC3  690   4.460   4.134   2.581  0.1221 -0.0625  0.0567
    1TYR     BB  691   5.329   2.949   3.376  0.4679 -0.1325 -0.2191
    1TYR    SC1  692   5.170   3.202   3.391  0.0349 -0.2638  0.3162
    1TYR    SC2  693   4.959   3.367   3.354  0.0027 -0.3964 -0.1692
    1TYR    SC3  694   5.202   3.470   3.411 -0.0891 -0.2094 -0.1052
    2GLN     BB  695   5.659   3.003   3.524  0.0151  0.3359  0.2083
    2GLN    SC1  696   5.854   2.745   3.265  0.3226 -0.0030 -0.0751
    3TYR     BB  697   5.756   3.296   3.423  0.0160 -0.1493  0.0438
    3TYR    SC1  698   5.590   3.458   3.200 -0.0390  0.2912 -0.1962
    3TYR    SC2  699   5.414   3.618   3.071 -0.3564 -0.0262 -0.1751
    3TYR    SC3  700   5.398   3.349   3.044  0.1327 -0.0675 -0.1703
    1TYR     BB  701   4.239   2.835   3.536  0.1829 -0.2127  0.1504
    1TYR    SC1  702   4.391   2.996   3.328  0.2628  0.3490 -0.0464
    1TYR    SC2  703   4.581   3.144   3.205  0.3399  0.2446 -0.0551
    1TYR    SC3  704   4.352   3.082   3.075  0.3271  0.3168 -0.0676
    2GLN     BB  705   4.291   2.865   3.814 -0.0706  0.0675 -0.0948
    2GLN    SC1  706   4.068   2.560   3.923  0.1260 -0.0701  0.2730
    3TYR     BB  707   4.347   3.026   4.040  0.0938  0.1103  0.3850
    3TYR    SC1  708   4.246   3.200   4.234  0.0720 -0.1264 -0.0464
    3TYR    SC2  709   4.051   3.338   4.359  0.1021 -0.0075 -0.1284
    3TYR    SC3  710   4.253   3.230   4.502  0.0185 -0.0640 -0.0517
    1TYR     BB  711   3.724   1.557   6.036  0.1440  0.3405 -0.2000
    1TYR    SC1  712   3.484   1.707   5.925 -0.0415 -0.3015  0.3250
    1TYR    SC2  713   3.296   1.683   5.733  0.1502  0.4042  0.0059
    1TYR    SC3  714   3.231   1.791   5.972 -0.0554 -0.3425  0.3237
    2GLN     BB  715   4.028   1.492   6.022  0.1883 -0.0280 -0.4642
    2GLN    SC1  716   4.040   1.122   5.997 -0.0780  0.1296  0.3116
    3TYR     BB  717   4.358   1.556   6.097 -0.2297 -0.3040  0.3058
    3TYR    SC1  718   4.404   1.805   5.925 -0.2410  0.0914 -0.1069
    3TYR    SC2  719   4.353   1.875   5.669 -0.0021  0.5416 -0.0439
    3TYR    SC3  720   4.561   1.986   5.800 -0.0740  0.2621  0.3278
    1TYR     BB  721   4.602   6.150   2.666 -0.1731 -0.4055 -0.2265
    1TYR    SC1  722   4.410   6.189   2.440 -0.2599  0.1198  0.1020
    1TYR    SC2  723   4.289   6.402   2.325  0.0251  0.0526 -0.3544
    1TYR    SC3  724   4.201   6.152   2.273  0.0102  0.0316 -0.2319
    2GLN     BB  725   4.878   6.033   2.535 -0.0168  0.0678 -0.1089
    2GLN    SC1  726   4.770   5.999   2.173 -0.2700  0.1683 -0.0038
    3TYR     BB  727   5.102   5.934   2.679 -0.1694  0.0811  0.1702
    3TYR    SC1  728   5.051   5.622   2.660  0.2277 -0.0194  0.2365
    3TYR    SC2  729   5.060   5.359   2.721  0.0070 -0.0464  0.1616
    3TYR    SC3  730   4.923   5.443   2.503 -0.0561  0.1444  0.2722
    1TYR     BB  731   1.781   5.684   1.271 -0.1672  0.0078 -0.0796
    1TYR    SC1  732   1.562   5.502   1.341 -0.1311  0.2018 -0.0036
    1TYR    SC2  733   1.313   5.483   1.444 -0.2440  0.1025 -0.2818
    1TYR    SC3  734   1.389   5.320   1.242  0.1113  0.0061 -0.0818
    2GLN     BB  735   1.909   5.941   1.163 -0.0584 -0.1594  0.0795
    2GLN    SC1  736   1.593   6.204   1.085  0.2198  0.2296  0.0218
    3TYR     BB  737   2.144   6.054   1.188  0.0460 -0.0186  0.2368
    3TYR    SC1  738   2.316   6.239   1.339  0.2675  0.2192 -0.0242
    3TYR    SC2  739   2.315   6.383   1.568  0.3497  0.2068 -0.0154
    3TYR    SC3  740   2.504   6.429   1.381  0.2509  0.2542 -0.1055
    1TYR     BB  741   5.319   4.569   2.549  0.1018 -0.0725 -0.1016
    1TYR    SC1  742   5.284   4.577   2.221  0.2121  0.2795 -0.2102
    1TYR    SC2  743   5.203   4.754   2.034 -0.0820  0.1046 -0.2575
    1TYR    SC3  744   5.188   4.489   1.984 -0.2777  0.0515  0.0524
    2GLN     BB  745   5.489   4.343   2.634 -0.2215  0.2087 -0.0465
    2GLN    SC1  746   5.769   4.560   2.681 -0.0619  0.0191  0.0340
    3TYR     BB  747   5.474   4.060   2.655  0.0263 -0.4030 -0.1224
    3TYR    SC1  748   5.678   3.855   2.676 -0.1487 -0.1766  0.1895
    3TYR    SC2  749   5.782   3.640   2.802  0.2429  0.0755  0.3195
    3TYR    SC3  750   5.937   3.789   2.639 -0.1250  0.0453 -0.0790
    1TYR     BB  751   3.851   2.361   6.585 -0.0534  0.1072  0.1262
    1TYR    SC1  752   3.665   2.570   6.666  0.1292  0.1007 -0.4229
    1TYR    SC2  753   3.617   2.830   6.722  0.1350  0.0802 -0.3204
    1TYR    SC3  754   3.427   2.680   6.601  0.1320  0.1321 -0.3806
    2GLN     BB  755   3.966   2.441   6.318 -0.0960  0.0457  0.1871
    2GLN    SC1  756   3.652   2.513   6.127 -0.0664  0.0492  0.2542
    3TYR     BB  757   4.164   2.530   6.226  0.1111 -0.0789 -0.4186
    3TYR    SC1  758   4.350   2.510   6.002 -0.2678 -0.0217  0.0255
    3TYR    SC2  759   4.341   2.440   5.741  0.2251 -0.1037  0.0175
    3TYR    SC3  760   4.576   2.435   5.874  0.0040  0.0493  0.4388
    1TYR     BB  761   4.729   3.901   2.200 -0.0968  0.2288  0.2611
    1TYR    SC1  762   5.081   3.957   2.117  0.0264  0.4882  0.1248
    1TYR    SC2  763   5.266   4.077   2.272  0.1272  0.1459  0.2800
    1TYR    SC3  764   5.304   4.060   2.006  0.1153  0.4400  0.2559
    2GLN     BB  765   4.694   3.641   2.321  0.1069  0.1275 -0.2619
    2GLN    SC1  766   4.736   3.425   2.011  0.0350 -0.1108 -0.3010
    3TYR     BB  767   4.629   3.440   2.497 -0.1858 -0.0614  0.2477
    3TYR    SC1  768   4.557   3.144   2.411  0.2043  0.0073 -0.2933
    3TYR    SC2  769   4.671   2.900   2.396 -0.1304 -0.2004  0.1982
    3TYR    SC3  770   4.403   2.922   2.414 -0.1362  0.2352 -0.1927
    1TYR     BB  771   5.726   2.521   5.767 -0.1427  0.1360 -0.0650
    1TYR    SC1  772   5.746   2.396   6.029  0.3221  0.2671 -0.0315
    1TYR    SC2  773   5.861   2.183   6.148  0.2839  0.1322 -0.2297
    1TYR    SC3  774   5.834   2.415   6.283 -0.0485 -0.1052  0.1395
    2GLN     BB  775   5.687   2.413   5.485  0.3049  0.2397 -0.2928
    2GLN    SC1  776   6.002   2.486   5.281 -0.3225  0.0231  0.0367
    3TYR     BB  777   5.677   2.077   5.466 -0.0920  0.0177 -0.1612
    3TYR    SC1  778   5.748   1.929   5.732  0.1144 -0.1695 -0.2556
    3TYR    SC2  779   5.735   1.659   5.748  0.2001 -0.1653 -0.0840
    3TYR    SC3  780   5.900   1.796   5.912 -0.1016  0.0183  0.0780
    1TYR     BB  781   5.919   4.135   2.998  0.1718 -0.0890 -0.1855
    1TYR    SC1  782   6.099   4.375   3.003 -0.3958 -0.0577  0.5362
    1TYR    SC2  783   6.297   4.454   3.170 -0.2105 -0.0550  0.3208
    1TYR    SC3  784   6.122   4.635   3.071  0.0699  0.0603  0.0135
    2GLN     BB  785   5.852   3.885   3.251  0.0226 -0.1932  0.2989
    2GLN    SC1  786   6.100   3.541   3.213 -0.0458 -0.1160 -0.0133
    3TYR     BB  787   5.863   3.884   3.529  0.4207  0.0263  0.1035
    3TYR    SC1  788   6.067   3.762   3.687  0.1857 -0.3196 -0.2413
    3TYR    SC2  789   6.107   3.513   3.784  0.0398 -0.1922  0.1721
    3TYR    SC3  790   6.205   3.728   3.916  0.1153 -0.0202 -0.1484
    1TYR     BB  791   3.097   1.798   6.906  0.1848  0.0162  0.2045
    1TYR    SC1  792   2.910   2.012   6.974  0.1104  0.3156  0.2773
    1TYR    SC2  793   2.734   2.129   7.142 -0.2552 -0.1219  0.2253
    1TYR    SC3  794   2.737   2.197   6.881 -0.3139 -0.0793  0.2355
    2GLN     BB  795   3.185   1.710   6.534 -0.1872 -0.1908 -0.0010
    2GLN    SC1  796   2.856   1.945   6.416  0.1453 -0.0418  0.1353
    3TYR     BB  797   3.388   1.503   6.396  0.1160 -0.1660  0.0001
    3TYR    SC1  798   3.559   1.318   6.537  0.1031  0.2064 -0.1212
    3TYR    SC2  799   3.823   1.265   6.541  0.1373  0.3760  0.0591
    3TYR    SC3  800   3.652   1.108   6.678  0.0769 -0.0314 -0.4421
    1TYR     BB  801   2.082   6.510   2.011 -0.0260 -0.0614 -0.1055
    1TYR    SC1  802   2.186   6.753   1.817 -0.2946  0.0653 -0.2769
    1TYR    SC2  803   2.345   6.844   1.619  0.1525 -0.0334  0.0193
    1TYR    SC3  804   2.348   6.965   1.860 -0.3747  0.0773 -0.0147
    2GLN     BB  805   2.295   6.342   2.069 -0.4706 -0.0198  0.0583
    2GLN    SC1  806   2.150   6.324   2.454 -0.3488 -0.1657  0.0936
    3TYR     BB  807   2.452   6.067   2.069 -0.1697 -0.1091  0.2438
    3TYR    SC1  808   2.597   6.003   1.841 -0.2682 -0.0493 -0.0610
    3TYR    SC2  809   2.617   5.797   1.668 -0.1729 -0.0115 -0.0957
    3TYR    SC3  810   2.609   6.051   1.576 -0.1652  0.0066 -0.0469
    1TYR     BB  811   5.531   1.867   4.209 -0.0675  0.2888  0.2224
    1TYR    SC1  812   5.396   1.560   4.202 -0.1376  0.3842  0.0951
    1TYR    SC2  813   5.290   1.383   4.377 -0.1151  0.2171 -0.0555
    1TYR    SC3  814   5.256   1.347   4.112  0.1034  0.3014 -0.0983
    2GLN     BB  815   5.384   2.140   4.216  0.1485  0.1626 -0.0199
    2GLN    SC1  816   5.035   2.254   4.124  0.2310 -0.2744  0.1444
    3TYR     BB  817   5.467   2.433   4.300 -0.0996  0.0177 -0.1782
    3TYR    SC1  818   5.347   2.659   4.067 -0.1006  0.0566 -0.0103
    3TYR    SC2  819   5.299   2.814   3.852  0.0821 -0.1301 -0.1922
    3TYR    SC3  820   5.313   2.925   4.098  0.0534  0.1146 -0.2966
    1TYR     BB  821   5.059   4.254   4.026  0.2428 -0.1097  0.0197
    1TYR    SC1  822   5.303   4.471   4.034  0.1527 -0.0328 -0.0610
    1TYR    SC2  823   5.467   4.615   3.876  0.0426 -0.0628 -0.2054
    1TYR    SC3  824   5.443   4.677   4.137  0.2253 -0.0116 -0.1987
    2GLN     BB  825   5.196   4.007   4.157 -0.0035  0.1345 -0.0596
    2GLN    SC1  826   5.332   4.116   4.515 -0.1190  0.0953 -0.2369
    3TYR     BB  827   5.023   3.809   4.259  0.0886  0.3553 -0.0937
    3TYR    SC1  828   5.187   3.546   4.326  0.1416  0.0978  0.3259
    3TYR    SC2  829   5.189   3.276   4.330 -0.1279  0.0891  0.1937
    3TYR    SC3  830   5.418   3.413   4.284 -0.0306 -0.1223  0.0267
    1TYR     BB  831   3.985   6.012   2.651  0.0759 -0.1023 -0.0730
    1TYR    SC1  832   3.879   5.732   2.613  0.0393  0.3550  0.1217
    1TYR    SC2  833   3.672   5.572   2.545  0.2816  0.1846 -0.2553
    1TYR    SC3  834   3.813   5.522   2.770 -0.0644  0.2908 -0.0054
    2GLN     BB  835   4.096   6.070   2.898 -0.2360 -0.1636  0.0845
    2GLN    SC1  836   4.199   5.747   3.002 -0.2560 -0.1401 -0.1009
    3TYR     BB  837   4.329   6.305   3.071  0.1366  0.0959 -0.0960
    3TYR    SC1  838   4.616   6.301   3.199 -0.0143  0.0537  0.2453
    3TYR    SC2  839   4.841   6.359   3.337 -0.0673 -0.2622  0.4776
    3TYR    SC3  840   4.814   6.118   3.217  0.0868  0.0816 -0.3319
    1TYR     BB  841   6.755   1.762   5.334  0.3116  0.4267  0.1050
    1TYR    SC1  842   6.625   1.757   5.056 -0.0196 -0.3580 -0.0997
    1TYR    SC2  843   6.615   1.930   4.848  0.1765 -0.1997  0.0188
    1TYR    SC3  844   6.392   1.798   4.925  0.0631 -0.1282 -0.1804
    2GLN     BB  845   6.482   1.757   5.521  0.1642  0.0094 -0.1002
    2GLN    SC1  846   6.690   1.901   5.794 -0.1316 -0.0291  0.0216
    3TYR     BB  847   6.191   1.774   5.500  0.0924  0.1759 -0.0121
    3TYR    SC1  848   6.034   1.779   5.219  0.2068 -0.1302 -0.1957
    3TYR    SC2  849   5.952   1.797   4.962  0.0092  0.2231 -0.1166
    3TYR    SC3  850   6.005   2.021   5.102  0.1937  0.0319  0.1308
    1TYR     BB  851   5.618   5.995   2.526  0.0203  0.0773 -0.1733
    1TYR    SC1  852   5.707   5.932   2.821  0.0160  0.2616  0.1484
    1TYR    SC2  853   5.903   5.790   2.941  0.0897 -0.0354 -0.2946
    1TYR    SC3  854   5.796   6.004   3.066  0.3108 -0.1889  0.1890
    2GLN     BB  855   5.521   5.683   2.416  0.1062 -0.0939 -0.1741
    2GLN    SC1  856   5.189   5.792   2.236  0.0620 -0.1048 -0.1235
    3TYR     BB  857   5.571   5.442   2.323 -0.0434  0.2247 -0.0910
    3TYR    SC1  858   5.329   5.223   2.270  0.0716 -0.0882 -0.0196
    3TYR    SC2  859   5.084   5.159   2.175  0.0281 -0.1270  0.1166
    3TYR    SC3  860   5.186   5.028   2.388  0.0849  0.0211  0.1828
    1TYR     BB  861   3.511   6.849   2.979  0.0788  0.1165  0.0163
    1TYR    SC1  862   3.567   6.583   2.803  0.4541 -0.0152 -0.1752
    1TYR    SC2  863   3.495   6.411   2.608 -0.0107 -0.0277 -0.0074
    1TYR    SC3  864   3.653   6.327   2.810 -0.2708 -0.2828  0.0989
    2GLN     BB  865   3.335   6.876   3.181  0.2346 -0.0356 -0.0155
    2GLN    SC1  866   3.492   6.900   3.527 -0.0627  0.1202 -0.0281
    3TYR     BB  867   3.029   6.842   3.177  0.1236  0.1977 -0.2389
    3TYR    SC1  868   2.755   6.654   3.281 -0.1203 -0.2174 -0.2308
    3TYR    SC2  869   2.556   6.573   3.446  0.1045 -0.0341  0.1488
    3TYR    SC3  870   2.755   6.402   3.379 -0.1028 -0.1778 -0.1270
    1TYR     BB  871   5.433   1.670   6.299 -0.1001 -0.1615 -0.2527
    1TYR    SC1  872   5.480   1.888   6.131  0.0739  0.0384  0.0641
    1TYR    SC2  873   5.389   2.015   5.911 -0.2017  0.0040  0.1541
    1TYR    SC3  874   5.403   2.146   6.147 -0.0702 -0.0087  0.1542
    2GLN     BB  875   5.659   1.423   6.258  0.0420  0.2122 -0.1112
    2GLN    SC1  876   5.599   1.249   6.587  0.0697  0.0487  0.3584
    3TYR     BB  877   5.921   1.321   6.127 -0.1331 -0.0587  0.0616
    3TYR    SC1  878   6.189   1.440   6.134  0.0719 -0.0381 -0.1579
    3TYR    SC2  879   6.346   1.572   5.957  0.1556 -0.2939 -0.2820
    3TYR    SC3  880   6.458   1.434   6.161  0.0612 -0.0339 -0.0457
    1TYR     BB  881   4.084   6.586   2.742  0.0347 -0.0148 -0.2241
    1TYR    SC1  882   3.985   6.581   3.030 -0.4225  0.2673 -0.1326
    1TYR    SC2  883   3.817   6.504   3.227  0.1133 -0.0845  0.2223
    1TYR    SC3  884   4.008   6.688   3.277 -0.2756  0.4927 -0.2394
    2GLN     BB  885   3.993   6.764   2.615 -0.1114 -0.0457  0.1197
    2GLN    SC1  886   4.329   6.881   2.466 -0.1285  0.1553 -0.1045
    3TYR     BB  887   3.780   6.882   2.481  0.0094  0.3838 -0.0106
    3TYR    SC1  888   3.631   6.939   2.261  0.1698 -0.0656  0.1317
    3TYR    SC2  889   3.626   6.988   1.995 -0.2468  0.1181  0.1644
    3TYR    SC3  890   3.398   6.924   2.125 -0.0651  0.1159  0.4959
    1TYR     BB  891   5.552   2.845   6.046  0.2322 -0.1860  0.0673
    1TYR    SC1  892   5.756   2.913   6.249 -0.4047  0.0560  0.1810
    1TYR    SC2  893   5.792   3.138   6.394 -0.0517  0.1008  0.0375
    1TYR    SC3  894   5.866   2.898   6.495  0.1497  0.1265 -0.0426
    2GLN     BB  895   5.387   3.126   5.945 -0.2440  0.1644 -0.1593
    2GLN    SC1  896   5.507   3.424   6.149  0.0829 -0.2736 -0.1523
    3TYR     BB  897   5.056   3.188   5.747  0.0789 -0.3247  0.0178
    3TYR    SC1  898   4.851   3.312   5.630  0.0837 -0.0729 -0.1836
    3TYR    SC2  899   4.712   3.445   5.440  0.1456  0.0963 -0.1127
    3TYR    SC3  900   4.637   3.462   5.699  0.0776 -0.1122 -0.1166
    1TYR     BB  901   3.285   3.947   3.426  0.1047 -0.2972  0.0197
    1TYR    SC1  902   3.131   3.853   3.640 -0.0554 -0.2831 -0.0160
    1TYR    SC2  903   3.081   3.657   3.819  0.0866 -0.0742  0.2627
    1TYR    SC3  904   2.960   3.897   3.843  0.2428  0.0148  0.1848
    2GLN     BB  905   3.165   4.312   3.444  0.2524  0.2551  0.2390
    2GLN    SC1  906   3.135   4.391   3.822  0.2146  0.1989  0.2609
    3TYR     BB  907   3.095   4.490   3.261  0.1779  0.1604 -0.1267
    3TYR    SC1  908   3.254   4.599   3.027  0.0363 -0.6626 -0.3664
    3TYR    SC2  909   3.448   4.705   2.871 -0.0600 -0.1121 -0.1411
    3TYR    SC3  910   3.250   4.559   2.760 -0.0471  0.1414 -0.5189
    1TYR     BB  911   2.807   3.307   2.212  0.1297 -0.2120 -0.0733
    1TYR    SC1  912   2.943   3.294   2.480 -0.0030 -0.1797  0.0481
    1TYR    SC2  913   3.123   3.246   2.675 -0.1617 -0.3893  0.1484
    1TYR    SC3  914   2.895   3.378   2.732  0.1263  0.2506 -0.0601
    2GLN     BB  915   2.674   3.581   2.182 -0.1194 -0.0059 -0.0424
    2GLN    SC1  916   2.429   3.592   2.496 -0.1712  0.3739 -0.0939
    3TYR     BB  917   2.732   3.836   2.126 -0.2651 -0.1935  0.3021
    3TYR    SC1  918   2.552   4.037   2.310  0.1392 -0.3574  0.2834
    3TYR    SC2  919   2.351   4.214   2.276  0.3332 -0.2054 -0.1805
    3TYR    SC3  920   2.540   4.259   2.463  0.1701 -0.1291 -0.0307
    1TYR     BB  921   7.329   4.836   2.590  0.0526 -0.0231 -0.0538
    1TYR    SC1  922   7.286   5.142   2.631  0.1202 -0.0098 -0.2231
    1TYR    SC2  923   7.414   5.344   2.758 -0.1515 -0.0383  0.1144
    1TYR    SC3  924   7.227   5.399   2.570  0.0122  0.0117 -0.0372
    2GLN     BB  925   7.242   4.651   2.803 -0.4879  0.2426  0.2256
    2GLN    SC1  926   7.336   4.340   2.871  0.3293 -0.2271 -0.1708
    3TYR     BB  927   6.972   4.658   2.984  0.5391  0.1760  0.2250
    3TYR    SC1  928   6.797   4.774   3.204 -0.0578  0.1447 -0.1213
    3TYR    SC2  929   6.579   4.811   3.360 -0.0306 -0.3554  0.0602
    3TYR    SC3  930   6.791   4.977   3.381 -0.2844 -0.0205  0.0693
    1TYR     BB  931   4.896   4.870   4.029  0.0626  0.0269  0.1979
    1TYR    SC1  932   4.758   4.632   3.846 -0.0956  0.2134 -0.2111
    1TYR    SC2  933   4.663   4.414   3.720  0.0552  0.0037  0.0262
    1TYR    SC3  934   4.532   4.513   3.934  0.0874  0.0322  0.0326
    2GLN     BB  935   5.112   5.030   3.772 -0.0303  0.2910 -0.0829
    2GLN    SC1  936   5.084   5.343   4.009 -0.0372 -0.2160 -0.0034
    3TYR     BB  937   5.110   4.914   3.523 -0.0983  0.2243 -0.0145
    3TYR    SC1  938   5.113   4.617   3.504 -0.1671 -0.0564 -0.0516
    3TYR    SC2  939   5.031   4.362   3.473 -0.0137 -0.1333  0.1447
    3TYR    SC3  940   5.294   4.421   3.459 -0.0176 -0.0390  0.4072
    1TYR     BB  941   1.525   5.202   1.763  0.3823  0.0103 -0.2312
    1TYR    SC1  942   1.341   5.176   2.025  0.0468  0.1831 -0.0652
    1TYR    SC2  943   1.247   4.935   2.102 -0.1112  0.2675  0.0144
    1TYR    SC3  944   1.077   5.142   2.070  0.0447  0.4167  0.1287
    2GLN     BB  945   1.580   4.935   1.695  0.0710 -0.3052 -0.1301
    2GLN    SC1  946   1.592   4.898   1.306 -0.3142 -0.1763  0.1224
    3TYR     BB  947   1.653   4.673   1.811  0.1019  0.0877  0.0444
    3TYR    SC1  948   1.420   4.531   1.984 -0.0272  0.0349 -0.2932
    3TYR    SC2  949   1.370   4.268   1.945  0.0531 -0.0251 -0.0071
    3TYR    SC3  950   1.347   4.376   2.192 -0.0782  0.2604 -0.1393
    1TYR     BB  951   4.744   1.724   5.315  0.1208  0.2421  0.1951
    1TYR    SC1  952   4.926   1.915   5.169 -0.0306 -0.3280  0.0504
    1TYR    SC2  953   5.170   2.031   5.164 -0.1292 -0.1078  0.1564
    1TYR    SC3  954   4.999   2.067   4.959 -0.0709 -0.2740  0.0754
    2GLN     BB  955   4.809   1.441   5.390 -0.1685  0.1918  0.2087
    2GLN    SC1  956   4.650   1.465   5.729  0.2284  0.0198 -0.0683
    3TYR     BB  957   4.762   1.195   5.296  0.5533 -0.1275  0.0765
    3TYR    SC1  958   4.522   1.001   5.363  0.0002 -0.1101  0.0090
    3TYR    SC2  959   4.430   0.753   5.417  0.0352 -0.1657 -0.1795
    3TYR    SC3  960   4.350   0.963   5.568  0.0420 -0.2970  0.0109
    1TYR     BB  961   2.610   5.457   0.892 -0.2392  0.0900 -0.2221
    1TYR    SC1  962   2.734   5.198   1.006  0.1141 -0.1904 -0.4286
    1TYR    SC2  963   2.822   4.997   1.166 -0.0127  0.3849  0.4568
    1TYR    SC3  964   2.997   5.135   1.012  0.1022 -0.2376 -0.0204
    2GLN     BB  965   2.856   5.630   0.782  0.1063  0.1605 -0.3533
    2GLN    SC1  966   2.817   5.650   0.425  0.0738  0.1522 -0.0086
    3TYR     BB  967   3.065   5.659   0.998  0.2768  0.2477 -0.3046
    3TYR    SC1  968   3.099   5.798   1.268 -0.3169  0.4076  0.1599
    3TYR    SC2  969   3.273   5.974   1.375  0.0644  0.0758  0.1137
    3TYR    SC3  970   3.038   5.924   1.499  0.2731  0.0696  0.5300
    1TYR     BB  971   6.033   1.329   5.611 -0.0636 -0.0862 -0.3117
    1TYR    SC1  972   6.269   1.313   5.399  0.3975  0.1299  0.0577
    1TYR    SC2  973   6.478   1.225   5.251  0.2115  0.0856 -0.1867
    1TYR    SC3  974   6.321   1.425   5.159 -0.2967 -0.3679 -0.3723
    2GLN     BB  975   5.869   1.076   5.582  0.0288  0.1919  0.0985
    2GLN    SC1  976   5.980   0.881   5.903 -0.4290 -0.0690  0.0412
    3TYR     BB  977   5.778   0.954   5.403  0.1697 -0.1218  0.0094
    3TYR    SC1  978   5.585   0.719   5.505 -0.1824  0.1291  0.1219
    3TYR    SC2  979   5.501   0.477   5.419  0.1311  0.1246 -0.1980
    3TYR    SC3  980   5.340   0.628   5.574 -0.1419 -0.2074 -0.1430
    1TYR     BB  981   4.816   3.802   3.427  0.2971 -0.0040 -0.1440
    1TYR    SC1  982   4.679   4.017   3.196  0.1840  0.0463  0.2793
    1TYR    SC2  983   4.531   4.190   3.341 -0.0305  0.0020  0.1199
    1TYR    SC3  984   4.511   4.188   3.071 -0.1523 -0.3719  0.1240
    2GLN     BB  985   4.929   3.899   3.645 -0.0985 -0.2143  0.1144
    2GLN    SC1  986   4.695   3.915   3.902  0.0074  0.0725 -0.2001
    3TYR     BB  987   5.256   3.932   3.668 -0.0505  0.2396  0.1084
    3TYR    SC1  988   5.341   3.965   3.394  0.3323  0.4047 -0.0461
    3TYR    SC2  989   5.171   4.002   3.188  0.1466 -0.0869  0.0028
    3TYR    SC3  990   5.429   4.077   3.165  0.1514 -0.2028 -0.4426
    1TYR     BB  991   0.094   3.942   2.611  0.1156  0.1109  0.0990
    1TYR    SC1  992   0.024   4.170   2.448  0.1847 -0.1116 -0.1533
    1TYR    SC2  993   0.041   4.321   2.225 -0.0903  0.0725 -0.0560
    1TYR    SC3  994  -0.186   4.320   2.370 -0.0559 -0.3536  0.0101
    2GLN     BB  995   0.441   3.950   2.518 -0.4216  0.0874 -0.1128
    2GLN    SC1  996   0.431   3.920   2.126  0.1115 -0.0261  0.1147
    3TYR     BB  997   0.749   3.767   2.525 -0.0469  0.2781 -0.0526
    3TYR    SC1  998   0.937   3.566   2.603 -0.2301 -0.2068  0.1946
    3TYR    SC2  999   1.029   3.447   2.827 -0.0630  0.2125  0.3602
    3TYR    SC3 1000   1.175   3.438   2.600 -0.2996 -0.3391  0.2087
   7.63548   7.63548   7.63548
