Generated by trjconv : Martini system from ../2_Creating_coordinates/TYR-ASP-TYR_aa.pdb t=   0.00000
 1000
    1TYR     BB    1   2.579   2.840   8.249 -0.2599  0.2737 -0.0747
    1TYR    SC1    2   2.425   2.635   8.115 -0.2199 -0.3277  0.1469
    1TYR    SC2    3   2.270   2.521   7.925  0.1231 -0.3230 -0.1483
    1TYR    SC3    4   2.362   2.373   8.131  0.0659 -0.4281 -0.1973
    2ASP     BB    5   2.762   3.074   8.284 -0.1238  0.0247  0.0812
    2ASP    SC1    6   2.766   3.171   8.590  0.1025  0.5580 -0.0944
    3TYR     BB    7   3.010   3.206   8.132  0.1110  0.0291  0.2144
    3TYR    SC1    8   3.085   3.437   8.304 -0.2022 -0.0797 -0.2137
    3TYR    SC2    9   2.996   3.570   8.521 -0.1611 -0.3481 -0.0250
    3TYR    SC3   10   3.259   3.569   8.463 -0.2052  0.0012 -0.2767
    1TYR     BB   11   3.297   4.311   5.132  0.0456 -0.2981  0.1435
    1TYR    SC1   12   3.262   4.575   5.031 -0.3897  0.0617 -0.0045
    1TYR    SC2   13   3.203   4.773   4.857 -0.1259  0.0464 -0.1176
    1TYR    SC3   14   3.458   4.689   4.884 -0.1921 -0.0852  0.1387
    2ASP     BB   15   3.530   4.133   5.040  0.3552  0.3081 -0.1530
    2ASP    SC1   16   3.550   3.828   5.096  0.0623  0.1067 -0.1549
    3TYR     BB   17   3.755   4.297   4.963  0.2721  0.3115 -0.1087
    3TYR    SC1   18   3.973   4.202   4.829  0.1490  0.1121  0.2244
    3TYR    SC2   19   4.209   4.131   4.719 -0.0637  0.1073 -0.2576
    3TYR    SC3   20   4.026   3.942   4.782 -0.0623  0.1318 -0.1792
    1TYR     BB   21   3.891   5.548   2.546 -0.1051  0.0620  0.4866
    1TYR    SC1   22   4.037   5.525   2.822  0.1127  0.1540  0.1383
    1TYR    SC2   23   3.973   5.523   3.085 -0.1030 -0.1860  0.0902
    1TYR    SC3   24   4.218   5.605   3.007 -0.1188  0.1587  0.3708
    2ASP     BB   25   3.973   5.198   2.382 -0.0802 -0.1745 -0.0546
    2ASP    SC1   26   4.275   5.306   2.441 -0.5212 -0.0319 -0.1347
    3TYR     BB   27   3.928   4.915   2.309 -0.1249 -0.2477 -0.2611
    3TYR    SC1   28   4.138   4.740   2.241  0.2852 -0.1836  0.1254
    3TYR    SC2   29   4.282   4.512   2.248  0.2378 -0.2104  0.2809
    3TYR    SC3   30   4.408   4.750   2.233  0.2851 -0.2478  0.0089
    1TYR     BB   31   2.788   0.846   6.616  0.0439  0.0734 -0.0319
    1TYR    SC1   32   2.645   0.985   6.375  0.0277 -0.0799 -0.1838
    1TYR    SC2   33   2.418   1.052   6.244 -0.0447  0.3537  0.1370
    1TYR    SC3   34   2.640   0.986   6.105 -0.3941 -0.2506 -0.1876
    2ASP     BB   35   2.524   0.776   6.828  0.0500  0.0997 -0.1132
    2ASP    SC1   36   2.306   0.660   6.671  0.2269 -0.0117 -0.0414
    3TYR     BB   37   2.563   0.828   7.093  0.3513  0.1559 -0.1090
    3TYR    SC1   38   2.287   0.788   7.311 -0.0572  0.1674 -0.1192
    3TYR    SC2   39   2.104   0.593   7.340  0.2604 -0.1034  0.1762
    3TYR    SC3   40   2.170   0.749   7.551  0.4680 -0.1048  0.1148
    1TYR     BB   41   2.914   6.104   0.037  0.2559  0.0248 -0.4370
    1TYR    SC1   42   3.100   5.860  -0.009 -0.0200  0.3379 -0.1644
    1TYR    SC2   43   3.253   5.671   0.108 -0.4417 -0.0200 -0.1564
    1TYR    SC3   44   3.369   5.887  -0.007  0.0307 -0.0609  0.2022
    2ASP     BB   45   2.887   5.993   0.401 -0.2123 -0.0592 -0.1883
    2ASP    SC1   46   3.043   6.173   0.556 -0.0730  0.0794 -0.0081
    3TYR     BB   47   2.898   5.684   0.472  0.3404 -0.0031  0.3257
    3TYR    SC1   48   2.992   5.609   0.726 -0.1817  0.1562  0.1765
    3TYR    SC2   49   3.019   5.428   0.925  0.5058  0.0555  0.0246
    3TYR    SC3   50   3.185   5.640   0.913  0.1004  0.3802 -0.1379
    1TYR     BB   51   2.446   4.547   4.200 -0.0455  0.1474  0.3572
    1TYR    SC1   52   2.443   4.542   4.484  0.4312  0.1891 -0.0223
    1TYR    SC2   53   2.426   4.438   4.732 -0.1222 -0.1208 -0.1686
    1TYR    SC3   54   2.364   4.697   4.690 -0.0976 -0.0853  0.0042
    2ASP     BB   55   2.690   4.437   3.975 -0.2234  0.1551 -0.2690
    2ASP    SC1   56   2.796   4.680   3.802 -0.0180  0.1318 -0.0946
    3TYR     BB   57   2.805   4.154   3.929  0.0862 -0.0405 -0.5521
    3TYR    SC1   58   3.068   4.095   4.030  0.0758 -0.0234 -0.0329
    3TYR    SC2   59   3.337   4.120   4.043  0.0894 -0.1751  0.0079
    3TYR    SC3   60   3.201   4.019   4.253 -0.0214  0.0690  0.0577
    1TYR     BB   61   3.103   4.966   3.466  0.0299 -0.2809  0.3994
    1TYR    SC1   62   2.941   5.123   3.230  0.0564 -0.0775 -0.1059
    1TYR    SC2   63   2.852   5.361   3.139  0.0594 -0.1165 -0.2118
    1TYR    SC3   64   2.697   5.141   3.117  0.2563 -0.2280 -0.5903
    2ASP     BB   65   3.236   4.732   3.222  0.0025 -0.0869  0.1106
    2ASP    SC1   66   3.077   4.539   3.096 -0.5354 -0.1869 -0.4726
    3TYR     BB   67   3.564   4.769   3.232 -0.0523  0.0408  0.0009
    3TYR    SC1   68   3.674   4.932   2.971 -0.0865 -0.0074  0.2300
    3TYR    SC2   69   3.748   5.138   2.812  0.1781 -0.1909  0.1056
    3TYR    SC3   70   3.646   4.913   2.703 -0.0353 -0.1604  0.2341
    1TYR     BB   71   3.166   5.262   3.981 -0.1228  0.1217 -0.0091
    1TYR    SC1   72   3.225   4.975   3.944  0.1237  0.2060  0.2891
    1TYR    SC2   73   3.411   4.839   3.804  0.1764  0.1793  0.3837
    1TYR    SC3   74   3.269   4.714   3.997  0.0100  0.1814  0.2653
    2ASP     BB   75   2.780   5.237   3.822 -0.1350 -0.0002  0.0954
    2ASP    SC1   76   2.580   5.106   3.594  0.0960 -0.0306  0.2171
    3TYR     BB   77   2.711   5.567   3.906  0.2556  0.1589  0.2176
    3TYR    SC1   78   2.704   5.688   3.647  0.0070 -0.3594  0.1162
    3TYR    SC2   79   2.861   5.882   3.543 -0.0223 -0.3888  0.0152
    3TYR    SC3   80   2.716   5.724   3.379 -0.0671 -0.4383  0.1018
    1TYR     BB   81   2.083   1.949   8.227  0.2025  0.0858  0.0115
    1TYR    SC1   82   2.007   1.673   8.346  0.0874  0.0199 -0.0841
    1TYR    SC2   83   2.088   1.423   8.285 -0.0499 -0.1264  0.2920
    1TYR    SC3   84   1.956   1.469   8.516  0.1624  0.3334  0.3360
    2ASP     BB   85   1.959   2.192   8.324  0.0186  0.0735  0.1689
    2ASP    SC1   86   2.084   2.420   8.547  0.2086 -0.1935  0.1886
    3TYR     BB   87   1.799   2.391   8.110  0.0330 -0.0027 -0.0024
    3TYR    SC1   88   1.917   2.670   8.156 -0.0500 -0.1161  0.0654
    3TYR    SC2   89   1.993   2.910   8.059 -0.2794 -0.0934 -0.0685
    3TYR    SC3   90   1.827   2.896   8.272 -0.0633 -0.1399  0.1023
    1TYR     BB   91   2.107   4.139   4.382 -0.2201 -0.1946 -0.1525
    1TYR    SC1   92   1.992   4.394   4.399 -0.2318 -0.0679 -0.2052
    1TYR    SC2   93   1.997   4.660   4.446 -0.0914 -0.1131  0.0586
    1TYR    SC3   94   1.763   4.526   4.454 -0.1853  0.0247 -0.2309
    2ASP     BB   95   2.416   4.034   4.282  0.0416 -0.0531 -0.4939
    2ASP    SC1   96   2.358   3.865   4.006  0.2417  0.0614  0.1019
    3TYR     BB   97   2.660   4.113   4.464  0.2150  0.0681  0.4420
    3TYR    SC1   98   2.911   3.997   4.597 -0.0609  0.1010  0.1361
    3TYR    SC2   99   3.102   3.807   4.615 -0.0135  0.1225 -0.1028
    3TYR    SC3  100   3.144   4.051   4.723  0.0360  0.0834 -0.0327
    1TYR     BB  101   4.274   6.101   6.179  0.1290  0.1861 -0.2756
    1TYR    SC1  102   4.403   6.343   6.298 -0.0358 -0.4137  0.1410
    1TYR    SC2  103   4.448   6.593   6.389 -0.2358 -0.2038 -0.2979
    1TYR    SC3  104   4.585   6.385   6.493  0.0243  0.0982 -0.0064
    2ASP     BB  105   4.461   5.856   6.207  0.3286  0.2395 -0.0448
    2ASP    SC1  106   4.499   5.862   6.510  0.1000 -0.0878  0.4096
    3TYR     BB  107   4.372   5.547   6.063  0.1250 -0.2112  0.1079
    3TYR    SC1  108   4.448   5.483   5.792 -0.0257 -0.0096 -0.1575
    3TYR    SC2  109   4.582   5.337   5.608 -0.0306  0.0216 -0.1860
    3TYR    SC3  110   4.312   5.353   5.598 -0.0418 -0.0921 -0.0913
    1TYR     BB  111   5.858   6.294   6.596  0.1772  0.2190  0.0736
    1TYR    SC1  112   6.116   6.352   6.453 -0.1019 -0.1779 -0.2587
    1TYR    SC2  113   6.296   6.543   6.388  0.0621 -0.2045  0.0905
    1TYR    SC3  114   6.335   6.288   6.308 -0.0564 -0.1335 -0.2101
    2ASP     BB  115   5.616   6.524   6.743  0.1695 -0.0423 -0.1130
    2ASP    SC1  116   5.528   6.505   7.035  0.1301  0.0487 -0.1006
    3TYR     BB  117   5.378   6.584   6.548 -0.0433  0.0086 -0.0140
    3TYR    SC1  118   5.399   6.838   6.395  0.3403  0.0469  0.2403
    3TYR    SC2  119   5.462   6.949   6.157 -0.1587 -0.0244  0.0600
    3TYR    SC3  120   5.509   7.085   6.386 -0.0666  0.2324 -0.1048
    1TYR     BB  121   1.988   3.166   7.084 -0.2285  0.0113 -0.0594
    1TYR    SC1  122   1.988   3.192   6.771  0.1964 -0.5493 -0.0412
    1TYR    SC2  123   1.911   3.256   6.520 -0.3079 -0.3154  0.1568
    1TYR    SC3  124   2.024   3.016   6.570  0.1720 -0.2198 -0.3478
    2ASP     BB  125   1.986   2.804   7.032  0.1897  0.0131  0.1497
    2ASP    SC1  126   1.663   2.788   6.974  0.2489 -0.0054 -0.3927
    3TYR     BB  127   2.171   2.673   6.887 -0.0221 -0.2696 -0.2024
    3TYR    SC1  128   2.449   2.635   6.959  0.0407  0.1014 -0.0892
    3TYR    SC2  129   2.651   2.567   7.125 -0.0416 -0.1132 -0.0728
    3TYR    SC3  130   2.704   2.631   6.868  0.1162  0.4649  0.0843
    1TYR     BB  131   2.985   4.246  -0.322 -0.0953 -0.1004  0.1207
    1TYR    SC1  132   2.647   4.229  -0.342  0.1056  0.1793  0.3141
    1TYR    SC2  133   2.446   4.080  -0.242  0.2671 -0.1803  0.1303
    1TYR    SC3  134   2.398   4.252  -0.443  0.1328 -0.2160  0.1305
    2ASP     BB  135   3.123   4.422  -0.162  0.0856  0.0635  0.2057
    2ASP    SC1  136   3.393   4.319  -0.016 -0.1002 -0.2999 -0.1169
    3TYR     BB  137   3.072   4.708   0.080 -0.0603 -0.0781  0.2426
    3TYR    SC1  138   2.927   4.671   0.325  0.0367  0.0746  0.1291
    3TYR    SC2  139   2.853   4.496   0.518  0.2059  0.0776  0.1992
    3TYR    SC3  140   2.966   4.732   0.586  0.1467  0.1355  0.0993
    1TYR     BB  141   2.547   4.569   0.082 -0.1216  0.1301 -0.2026
    1TYR    SC1  142   2.676   4.264   0.138  0.1538 -0.1103 -0.0883
    1TYR    SC2  143   2.848   4.056   0.129 -0.0212 -0.2779  0.2339
    1TYR    SC3  144   2.589   4.015   0.192 -0.1350  0.0012 -0.0174
    2ASP     BB  145   2.610   4.678  -0.170 -0.1672  0.1681  0.0678
    2ASP    SC1  146   2.304   4.692  -0.322  0.1230  0.1282 -0.2350
    3TYR     BB  147   2.775   4.765  -0.447  0.1062 -0.1463  0.0060
    3TYR    SC1  148   3.078   4.770  -0.453 -0.1743 -0.0281 -0.2429
    3TYR    SC2  149   3.288   4.912  -0.546 -0.1346  0.0273 -0.0760
    3TYR    SC3  150   3.291   4.642  -0.556 -0.0994  0.0306 -0.1636
    1TYR     BB  151   3.546   5.941   5.625  0.0644  0.1024  0.0012
    1TYR    SC1  152   3.761   5.785   5.780 -0.2453  0.2549 -0.0085
    1TYR    SC2  153   3.943   5.585   5.791 -0.1981  0.2913 -0.1100
    1TYR    SC3  154   3.826   5.675   6.018 -0.1837  0.1818 -0.0585
    2ASP     BB  155   3.590   6.204   5.528  0.2576 -0.3145 -0.1301
    2ASP    SC1  156   3.675   6.234   5.237  0.0142  0.2229 -0.1265
    3TYR     BB  157   3.553   6.499   5.693 -0.3356 -0.3505  0.2191
    3TYR    SC1  158   3.405   6.493   5.948  0.0329  0.0297 -0.1526
    3TYR    SC2  159   3.274   6.351   6.137  0.2737  0.0110  0.0051
    3TYR    SC3  160   3.170   6.583   6.047 -0.1742 -0.2957 -0.3243
    1TYR     BB  161   2.752   5.470  -0.623 -0.1570  0.1966  0.0676
    1TYR    SC1  162   2.900   5.314  -0.394 -0.3244  0.0265  0.1902
    1TYR    SC2  163   3.018   5.422  -0.177 -0.1920  0.2294  0.0214
    1TYR    SC3  164   3.029   5.156  -0.218 -0.1832  0.1943  0.2400
    2ASP     BB  165   2.476   5.262  -0.716 -0.0856  0.1831 -0.0022
    2ASP    SC1  166   2.274   5.470  -0.791 -0.0132  0.0373  0.0384
    3TYR     BB  167   2.420   4.989  -0.696 -0.0023  0.0794  0.2296
    3TYR    SC1  168   2.405   4.727  -0.842  0.0145 -0.3073 -0.0803
    3TYR    SC2  169   2.520   4.486  -0.882  0.1263 -0.2370 -0.1948
    3TYR    SC3  170   2.259   4.522  -0.940  0.2270 -0.2015 -0.6708
    1TYR     BB  171   3.879   5.071   0.979  0.1186 -0.2331 -0.3395
    1TYR    SC1  172   3.994   5.345   1.084  0.0090 -0.1267  0.3535
    1TYR    SC2  173   4.140   5.426   1.296 -0.1189  0.1172  0.3526
    1TYR    SC3  174   4.027   5.609   1.132 -0.2626 -0.0676  0.2413
    2ASP     BB  175   3.693   5.081   0.711 -0.1196  0.0639 -0.1458
    2ASP    SC1  176   3.842   5.013   0.454  0.2099 -0.1733  0.0405
    3TYR     BB  177   3.366   5.031   0.721 -0.0524  0.1428 -0.0096
    3TYR    SC1  178   3.228   5.077   0.425  0.0659 -0.0498  0.1262
    3TYR    SC2  179   3.084   5.220   0.245 -0.0045 -0.0514  0.1809
    3TYR    SC3  180   3.340   5.154   0.191  0.1001  0.2770  0.2433
    1TYR     BB  181   1.979   4.102   6.844  0.2062  0.1942 -0.1245
    1TYR    SC1  182   1.914   4.403   6.956 -0.4670 -0.1460 -0.0301
    1TYR    SC2  183   1.818   4.642   6.873 -0.1958 -0.0316 -0.0279
    1TYR    SC3  184   1.829   4.584   7.137  0.0814  0.1111 -0.0035
    2ASP     BB  185   2.067   4.054   6.604 -0.3375 -0.3137 -0.0879
    2ASP    SC1  186   1.851   3.952   6.388  0.0229 -0.1610  0.1942
    3TYR     BB  187   2.363   4.039   6.519  0.0753  0.1901  0.1675
    3TYR    SC1  188   2.506   4.014   6.778 -0.0607  0.0671  0.0313
    3TYR    SC2  189   2.734   4.081   6.906  0.1262  0.0719 -0.2911
    3TYR    SC3  190   2.588   3.871   6.992  0.2237  0.0980 -0.0515
    1TYR     BB  191   2.451   3.146   6.940 -0.0539  0.0467 -0.0793
    1TYR    SC1  192   2.468   3.078   6.645  0.2849  0.3529  0.0705
    1TYR    SC2  193   2.651   3.019   6.455  0.2258 -0.0439  0.1273
    1TYR    SC3  194   2.423   3.148   6.388  0.2391 -0.1135 -0.0589
    2ASP     BB  195   2.675   3.121   7.097 -0.2053 -0.4039 -0.2134
    2ASP    SC1  196   2.654   2.994   7.373  0.0253 -0.1980 -0.1009
    3TYR     BB  197   2.919   3.293   7.087 -0.1412 -0.0979  0.0467
    3TYR    SC1  198   3.070   3.550   7.043  0.0651  0.0523 -0.0342
    3TYR    SC2  199   3.045   3.797   6.935  0.1678  0.0147 -0.1476
    3TYR    SC3  200   3.281   3.667   6.921  0.2004  0.0289  0.1711
    1TYR     BB  201   3.940   4.276   3.205 -0.2489 -0.0572  0.0383
    1TYR    SC1  202   3.744   4.406   3.004  0.1928 -0.2949 -0.0513
    1TYR    SC2  203   3.668   4.502   2.763  0.2073 -0.1407  0.0041
    1TYR    SC3  204   3.497   4.353   2.908  0.1235 -0.0594 -0.0102
    2ASP     BB  205   4.189   4.367   3.254  0.3981 -0.0649  0.0495
    2ASP    SC1  206   4.388   4.129   3.333 -0.0662  0.2057  0.2547
    3TYR     BB  207   4.216   4.687   3.221  0.1811  0.0042  0.0368
    3TYR    SC1  208   3.990   4.810   3.421  0.1875  0.3234 -0.0564
    3TYR    SC2  209   3.887   5.060   3.417  0.0154  0.2562  0.0344
    3TYR    SC3  210   3.864   4.908   3.639 -0.1060  0.0682 -0.1027
    1TYR     BB  211   2.709   0.372   6.475 -0.1976 -0.0859 -0.2481
    1TYR    SC1  212   2.581   0.553   6.249 -0.0183 -0.2511  0.0023
    1TYR    SC2  213   2.566   0.572   5.980  0.0428 -0.0537  0.0105
    1TYR    SC3  214   2.343   0.599   6.131  0.0487  0.1031 -0.0076
    2ASP     BB  215   2.610   0.212   6.766  0.1822  0.1630 -0.0596
    2ASP    SC1  216   2.623  -0.081   6.649 -0.2807  0.3001 -0.2599
    3TYR     BB  217   2.468   0.251   6.960  0.4696  0.1567 -0.4878
    3TYR    SC1  218   2.507   0.350   7.242 -0.0972  0.3339  0.0562
    3TYR    SC2  219   2.720   0.334   7.407 -0.1062  0.0286  0.0461
    3TYR    SC3  220   2.492   0.452   7.492 -0.0407  0.0663  0.1730
    1TYR     BB  221   3.676   4.692   1.202 -0.0152  0.1451 -0.0428
    1TYR    SC1  222   3.800   4.487   1.375 -0.1155 -0.0016  0.1016
    1TYR    SC2  223   3.994   4.301   1.348 -0.0796  0.0475  0.0148
    1TYR    SC3  224   3.830   4.295   1.562 -0.1378 -0.1384 -0.0325
    2ASP     BB  225   3.565   4.604   0.921  0.0309  0.1692  0.1711
    2ASP    SC1  226   3.823   4.544   0.737  0.5594 -0.1353  0.3157
    3TYR     BB  227   3.296   4.524   0.880 -0.0228 -0.4032 -0.0489
    3TYR    SC1  228   3.253   4.291   0.673  0.1150 -0.0376 -0.1763
    3TYR    SC2  229   3.155   4.187   0.445  0.1157 -0.1583 -0.1226
    3TYR    SC3  230   3.421   4.195   0.486  0.1080 -0.5223  0.0470
    1TYR     BB  231   3.049   4.433   2.599  0.1866  0.1035  0.4143
    1TYR    SC1  232   3.279   4.568   2.453 -0.0542 -0.0621  0.2323
    1TYR    SC2  233   3.525   4.572   2.342  0.0294  0.0791  0.4161
    1TYR    SC3  234   3.384   4.801   2.366 -0.1382 -0.0065  0.2783
    2ASP     BB  235   2.872   4.282   2.408 -0.3246 -0.1182 -0.3001
    2ASP    SC1  236   2.595   4.420   2.487  0.2103  0.2241 -0.1394
    3TYR     BB  237   2.957   4.011   2.289  0.4287 -0.2607 -0.1224
    3TYR    SC1  238   3.264   3.926   2.414 -0.0358 -0.3431 -0.1387
    3TYR    SC2  239   3.415   4.066   2.590 -0.3854 -0.0093 -0.0866
    3TYR    SC3  240   3.520   3.854   2.460  0.0393  0.0525  0.1341
    1TYR     BB  241   3.384   4.990  -1.066  0.2528  0.1570  0.1237
    1TYR    SC1  242   3.398   4.717  -1.097  0.2335  0.0873  0.3816
    1TYR    SC2  243   3.434   4.476  -0.982  0.2205 -0.1953 -0.1648
    1TYR    SC3  244   3.343   4.492  -1.236  0.2023  0.3937 -0.1375
    2ASP     BB  245   3.101   5.119  -0.942  0.1714 -0.0662  0.1094
    2ASP    SC1  246   3.240   5.378  -0.765  0.3076 -0.0392  0.0543
    3TYR     BB  247   2.881   4.974  -0.874 -0.0926  0.2522  0.0130
    3TYR    SC1  248   2.889   4.698  -0.943 -0.0014 -0.0013  0.1017
    3TYR    SC2  249   3.007   4.463  -0.882  0.1734  0.0871  0.1100
    3TYR    SC3  250   2.892   4.498  -1.124  0.1759  0.0041  0.0966
    1TYR     BB  251   4.999   5.146   5.720  0.0938  0.2148  0.2755
    1TYR    SC1  252   5.033   4.869   5.613  0.0103 -0.1615  0.2512
    1TYR    SC2  253   5.206   4.722   5.467  0.1704 -0.0272  0.3029
    1TYR    SC3  254   5.081   4.612   5.680 -0.3713 -0.3546 -0.1499
    2ASP     BB  255   5.245   5.152   5.914  0.1332  0.0702  0.1457
    2ASP    SC1  256   5.327   4.920   6.105 -0.3299 -0.3236  0.0677
    3TYR     BB  257   5.476   5.355   5.789 -0.1573 -0.1738  0.0455
    3TYR    SC1  258   5.347   5.629   5.850  0.0098  0.1977 -0.0401
    3TYR    SC2  259   5.508   5.769   6.015 -0.0148 -0.0287  0.1846
    3TYR    SC3  260   5.292   5.888   5.903  0.0219  0.1386  0.2861
    1TYR     BB  261   2.279   0.666   7.988  0.0398  0.0102 -0.1169
    1TYR    SC1  262   2.548   0.566   7.948 -0.0646  0.4006 -0.1499
    1TYR    SC2  263   2.779   0.500   7.824 -0.2282  0.1284 -0.3227
    1TYR    SC3  264   2.776   0.542   8.091  0.0232  0.1599 -0.3220
    2ASP     BB  265   2.321   0.997   8.121  0.0713 -0.0186  0.1309
    2ASP    SC1  266   2.546   0.937   8.314 -0.0620 -0.0554  0.2896
    3TYR     BB  267   2.270   1.131   7.876  0.2108  0.4313 -0.0363
    3TYR    SC1  268   2.269   1.402   7.845  0.1768  0.0730 -0.1997
    3TYR    SC2  269   2.279   1.657   7.933 -0.0796  0.1127 -0.2763
    3TYR    SC3  270   2.280   1.605   7.668 -0.2460  0.0490 -0.2658
    1TYR     BB  271   1.518   3.736   7.366  0.0259 -0.0377 -0.1917
    1TYR    SC1  272   1.274   3.533   7.338 -0.2144  0.1673  0.2569
    1TYR    SC2  273   1.033   3.650   7.309 -0.2735  0.0337  0.1999
    1TYR    SC3  274   1.056   3.382   7.292 -0.0950  0.0570  0.0342
    2ASP     BB  275   1.555   3.852   6.998 -0.0233 -0.3416  0.2545
    2ASP    SC1  276   1.451   4.177   7.066 -0.1923 -0.0881  0.0870
    3TYR     BB  277   1.747   3.625   6.853 -0.0747 -0.1828  0.1156
    3TYR    SC1  278   1.535   3.386   6.866 -0.1747  0.1767 -0.1418
    3TYR    SC2  279   1.513   3.151   6.734  0.1281 -0.0969  0.2639
    3TYR    SC3  280   1.308   3.241   6.886 -0.0822  0.0377 -0.0839
    1TYR     BB  281   2.158   0.201   7.714  0.1572 -0.3564 -0.0191
    1TYR    SC1  282   2.072   0.027   7.473 -0.3060 -0.1396  0.1416
    1TYR    SC2  283   2.076   0.022   7.203  0.1011 -0.2397  0.1413
    1TYR    SC3  284   2.012  -0.201   7.342  0.3833 -0.3395  0.1206
    2ASP     BB  285   2.323   0.065   7.873  0.0581  0.0822  0.1538
    2ASP    SC1  286   2.376   0.140   8.176 -0.1163  0.1968  0.1970
    3TYR     BB  287   2.553  -0.030   7.688  0.1087  0.0306 -0.0652
    3TYR    SC1  288   2.498  -0.076   7.403 -0.1482 -0.0857  0.0338
    3TYR    SC2  289   2.690  -0.144   7.226 -0.0814 -0.2900  0.1794
    3TYR    SC3  290   2.434  -0.215   7.180 -0.0608 -0.3620  0.1740
    1TYR     BB  291   3.696   3.815   4.043  0.1923 -0.0301 -0.2298
    1TYR    SC1  292   3.866   4.051   4.131 -0.1612 -0.0807  0.0882
    1TYR    SC2  293   4.129   4.005   4.169 -0.1188 -0.0249 -0.1186
    1TYR    SC3  294   3.991   4.155   4.346  0.1323  0.4656 -0.3144
    2ASP     BB  295   3.555   3.678   4.314 -0.1037  0.2027 -0.0263
    2ASP    SC1  296   3.301   3.511   4.239 -0.2626  0.1967 -0.3838
    3TYR     BB  297   3.569   3.864   4.603 -0.0834  0.1133 -0.1182
    3TYR    SC1  298   3.545   4.156   4.505 -0.0071  0.1551  0.4576
    3TYR    SC2  299   3.509   4.372   4.347 -0.0309 -0.0443  0.1810
    3TYR    SC3  300   3.429   4.378   4.605  0.1142  0.3285  0.2244
    1TYR     BB  301   3.157   0.597   7.493 -0.0385 -0.3235 -0.4178
    1TYR    SC1  302   3.117   0.298   7.551 -0.0833 -0.1010  0.0291
    1TYR    SC2  303   3.018   0.054   7.609  0.0077 -0.0714  0.3341
    1TYR    SC3  304   3.232   0.148   7.744 -0.0009  0.1626  0.1924
    2ASP     BB  305   3.373   0.731   7.668  0.3385  0.0421  0.1718
    2ASP    SC1  306   3.218   0.809   7.945  0.2617 -0.1426 -0.0590
    3TYR     BB  307   3.580   0.975   7.599 -0.2989 -0.2355 -0.1525
    3TYR    SC1  308   3.436   1.236   7.656 -0.0760 -0.0553 -0.0776
    3TYR    SC2  309   3.310   1.473   7.632 -0.0373 -0.0502 -0.2420
    3TYR    SC3  310   3.172   1.254   7.709 -0.1348 -0.0321 -0.3608
    1TYR     BB  311   3.396   4.141  -0.580  0.1643  0.0532  0.0484
    1TYR    SC1  312   3.359   3.926  -0.356  0.1838  0.0343  0.1382
    1TYR    SC2  313   3.366   3.670  -0.273 -0.4061 -0.0422  0.0084
    1TYR    SC3  314   3.255   3.860  -0.117  0.2957  0.2171  0.2402
    2ASP     BB  315   3.637   4.303  -0.570  0.2658 -0.0927  0.2021
    2ASP    SC1  316   3.863   4.235  -0.773 -0.3293 -0.0050  0.0994
    3TYR     BB  317   3.750   4.395  -0.323  0.1874  0.2423 -0.0226
    3TYR    SC1  318   3.662   4.653  -0.195 -0.0809  0.2129 -0.3632
    3TYR    SC2  319   3.493   4.864  -0.191 -0.1669  0.1444 -0.1130
    3TYR    SC3  320   3.734   4.883  -0.072 -0.2737  0.0266  0.1292
    1TYR     BB  321   2.177   4.255   7.732  0.2058  0.1408  0.1486
    1TYR    SC1  322   2.109   3.932   7.771 -0.2965 -0.0499  0.2222
    1TYR    SC2  323   2.188   3.674   7.769  0.2275  0.0967  0.1756
    1TYR    SC3  324   1.927   3.735   7.737  0.1248 -0.4102 -0.1037
    2ASP     BB  325   1.909   4.284   7.520  0.2073  0.0749  0.1301
    2ASP    SC1  326   1.632   4.305   7.697 -0.0551  0.0573  0.1638
    3TYR     BB  327   1.880   4.072   7.331  0.0582 -0.3359  0.1580
    3TYR    SC1  328   2.062   3.831   7.310 -0.2950 -0.0258 -0.1199
    3TYR    SC2  329   1.988   3.572   7.319 -0.0974 -0.0814 -0.0241
    3TYR    SC3  330   2.247   3.640   7.358 -0.1872  0.1494  0.2062
    1TYR     BB  331   1.495   2.917   7.927 -0.0347  0.0550 -0.1860
    1TYR    SC1  332   1.704   2.766   7.749  0.2886 -0.0957  0.2536
    1TYR    SC2  333   1.910   2.599   7.699  0.2724 -0.0030 -0.1688
    1TYR    SC3  334   1.767   2.702   7.494  0.0769  0.2768  0.0976
    2ASP     BB  335   1.663   3.242   7.846 -0.1319  0.2126  0.0264
    2ASP    SC1  336   1.409   3.366   7.742  0.0909 -0.2174 -0.1471
    3TYR     BB  337   1.886   3.242   7.705 -0.1132 -0.1483  0.1235
    3TYR    SC1  338   2.078   3.057   7.661  0.0112 -0.0028 -0.2611
    3TYR    SC2  339   2.267   2.876   7.731 -0.1224 -0.0002  0.1390
    3TYR    SC3  340   2.180   2.889   7.475  0.2999 -0.1059 -0.0206
    1TYR     BB  341   1.866   4.453   6.431  0.1303  0.0890 -0.0387
    1TYR    SC1  342   2.023   4.549   6.246 -0.2983 -0.0977 -0.2230
    1TYR    SC2  343   2.100   4.616   5.996 -0.0563  0.0527 -0.1120
    1TYR    SC3  344   2.085   4.805   6.188 -0.0371 -0.0961  0.0390
    2ASP     BB  345   1.560   4.646   6.426  0.0445  0.1654 -0.1815
    2ASP    SC1  346   1.361   4.529   6.193  0.2702  0.0465 -0.1908
    3TYR     BB  347   1.570   4.906   6.558 -0.2872 -0.0220  0.0798
    3TYR    SC1  348   1.841   5.003   6.535 -0.2031  0.0349  0.2486
    3TYR    SC2  349   1.986   5.192   6.663  0.0604 -0.1310  0.2049
    3TYR    SC3  350   2.094   4.950   6.613 -0.0958 -0.1308 -0.1779
    1TYR     BB  351   1.861   1.889   6.331  0.1312 -0.2695 -0.1744
    1TYR    SC1  352   2.048   1.640   6.273 -0.2216 -0.1855 -0.0123
    1TYR    SC2  353   2.167   1.437   6.140  0.1724  0.0376 -0.0182
    1TYR    SC3  354   2.211   1.469   6.404  0.1118  0.1151 -0.0171
    2ASP     BB  355   2.060   2.116   6.582 -0.1867 -0.2236  0.0748
    2ASP    SC1  356   1.913   2.414   6.522 -0.0993 -0.2231 -0.1386
    3TYR     BB  357   2.362   2.212   6.755  0.1774 -0.4793  0.1433
    3TYR    SC1  358   2.603   2.128   6.867 -0.2082  0.0875  0.4267
    3TYR    SC2  359   2.772   2.034   7.055 -0.0261  0.1093  0.2777
    3TYR    SC3  360   2.733   1.894   6.828 -0.2834  0.0579  0.3501
    1TYR     BB  361   3.245   5.883   3.170 -0.0533  0.3606  0.0021
    1TYR    SC1  362   3.191   5.613   3.327 -0.1898  0.1720  0.1331
    1TYR    SC2  363   3.282   5.636   3.579  0.0310 -0.2940  0.1102
    1TYR    SC3  364   3.076   5.470   3.525  0.2801 -0.5582 -0.0666
    2ASP     BB  365   3.568   5.880   3.059  0.0059  0.1140  0.0862
    2ASP    SC1  366   3.760   6.043   2.873  0.1247  0.0256  0.1682
    3TYR     BB  367   3.529   5.621   2.868 -0.1659 -0.0087  0.6496
    3TYR    SC1  368   3.507   5.406   3.009  0.2752  0.3298  0.1926
    3TYR    SC2  369   3.564   5.291   3.248 -0.2582  0.2054  0.2750
    3TYR    SC3  370   3.354   5.203   3.101  0.0066  0.3365 -0.2100
    1TYR     BB  371   2.369   5.335  -1.371  0.2986 -0.2996  0.1416
    1TYR    SC1  372   2.214   5.609  -1.271 -0.0808  0.2396 -0.0976
    1TYR    SC2  373   1.973   5.688  -1.179 -0.0081 -0.0615  0.4005
    1TYR    SC3  374   2.192   5.842  -1.137 -0.0113 -0.0938  0.5393
    2ASP     BB  375   2.559   5.183  -1.197  0.0660 -0.1701 -0.3769
    2ASP    SC1  376   2.764   5.402  -1.138 -0.1140  0.0058  0.0659
    3TYR     BB  377   2.539   4.875  -1.303  0.0850 -0.1372 -0.2086
    3TYR    SC1  378   2.875   4.860  -1.397  0.2017  0.2741 -0.0543
    3TYR    SC2  379   3.140   4.829  -1.436  0.2492  0.3092  0.2161
    3TYR    SC3  380   3.033   5.077  -1.425  0.2232  0.2979  0.2178
    1TYR     BB  381   5.019   7.275   6.381 -0.1522  0.0764  0.1335
    1TYR    SC1  382   4.936   6.972   6.366 -0.5470  0.3325 -0.0612
    1TYR    SC2  383   4.908   6.746   6.511 -0.1395  0.2870 -0.0368
    1TYR    SC3  384   4.820   6.754   6.256 -0.2017  0.1182 -0.0223
    2ASP     BB  385   5.070   7.426   6.083  0.1875  0.0840 -0.0029
    2ASP    SC1  386   5.026   7.739   6.130  0.0031  0.0720  0.1248
    3TYR     BB  387   5.283   7.410   5.843  0.1433  0.0323  0.1871
    3TYR    SC1  388   5.305   7.632   5.625  0.1640  0.1260 -0.0132
    3TYR    SC2  389   5.359   7.873   5.517  0.0790  0.1946  0.0950
    3TYR    SC3  390   5.119   7.828   5.632  0.0104 -0.0126 -0.1218
    1TYR     BB  391   1.495   5.087   0.181 -0.0041  0.1498 -0.3153
    1TYR    SC1  392   1.730   4.845   0.122  0.0626  0.0548 -0.0546
    1TYR    SC2  393   1.955   4.695   0.112  0.0134 -0.0144 -0.1513
    1TYR    SC3  394   1.855   4.802  -0.115  0.1483  0.3174 -0.0606
    2ASP     BB  395   1.424   5.071   0.478  0.1715  0.2057 -0.3154
    2ASP    SC1  396   1.123   5.228   0.500  0.0047 -0.1760 -0.0306
    3TYR     BB  397   1.533   4.728   0.585 -0.0855 -0.1191 -0.3092
    3TYR    SC1  398   1.720   4.633   0.785  0.0109 -0.4535 -0.1062
    3TYR    SC2  399   1.983   4.651   0.847  0.0622 -0.3780 -0.3408
    3TYR    SC3  400   1.811   4.541   1.024  0.1921 -0.1083 -0.0344
    1TYR     BB  401   3.753   5.421   0.117 -0.1001 -0.3847  0.0609
    1TYR    SC1  402   3.557   5.392  -0.090 -0.0476  0.0457  0.0085
    1TYR    SC2  403   3.435   5.527  -0.290 -0.1575  0.3106  0.2450
    1TYR    SC3  404   3.490   5.264  -0.318 -0.0936  0.3592 -0.1618
    2ASP     BB  405   4.064   5.370   0.051  0.0596  0.1805 -0.0375
    2ASP    SC1  406   4.190   5.664  -0.024 -0.1591  0.0846 -0.2299
    3TYR     BB  407   4.229   5.100   0.138  0.1374  0.0278 -0.0635
    3TYR    SC1  408   4.251   4.923  -0.097 -0.1505  0.2497 -0.1349
    3TYR    SC2  409   4.128   4.891  -0.335 -0.2609 -0.0136 -0.0464
    3TYR    SC3  410   4.185   4.676  -0.182  0.3081  0.0968 -0.0781
    1TYR     BB  411   5.330   7.074   4.809 -0.0893  0.1974  0.1124
    1TYR    SC1  412   5.435   6.901   5.028 -0.0730  0.0360 -0.1736
    1TYR    SC2  413   5.276   6.711   5.136  0.0045  0.1322  0.1226
    1TYR    SC3  414   5.543   6.704   5.178  0.0379  0.1724 -0.0706
    2ASP     BB  415   5.022   7.122   4.885  0.0688  0.1871 -0.1163
    2ASP    SC1  416   4.916   7.400   4.758 -0.2338 -0.0993  0.0537
    3TYR     BB  417   4.864   6.983   5.030 -0.1657  0.0729  0.0130
    3TYR    SC1  418   4.694   7.099   5.212  0.1131  0.3168 -0.2361
    3TYR    SC2  419   4.517   7.095   5.415  0.2429  0.1594 -0.1230
    3TYR    SC3  420   4.476   7.257   5.204  0.0294  0.2156 -0.0417
    1TYR     BB  421   3.028   3.306   7.582 -0.2508 -0.1068 -0.1804
    1TYR    SC1  422   2.868   3.554   7.511 -0.4452 -0.5949  0.0732
    1TYR    SC2  423   2.837   3.787   7.376  0.3972 -0.3254  0.2682
    1TYR    SC3  424   2.638   3.694   7.533 -0.1059  0.0465 -0.1098
    2ASP     BB  425   3.269   3.221   7.608  0.3967 -0.3568  0.3076
    2ASP    SC1  426   3.384   2.950   7.572 -0.0153 -0.1559  0.1389
    3TYR     BB  427   3.466   3.290   7.948 -0.0616 -0.3718 -0.0415
    3TYR    SC1  428   3.296   3.574   7.934  0.0349  0.0797 -0.0355
    3TYR    SC2  429   3.289   3.803   8.078  0.1272  0.0816 -0.0327
    3TYR    SC3  430   3.060   3.697   7.980  0.0492  0.0235  0.2031
    1TYR     BB  431   5.445   6.155   6.348  0.1443 -0.0195 -0.4701
    1TYR    SC1  432   5.199   6.088   6.267  0.0130 -0.0681  0.1424
    1TYR    SC2  433   4.952   5.987   6.228  0.0228 -0.0198 -0.0565
    1TYR    SC3  434   4.984   6.250   6.277  0.0348 -0.0260 -0.0307
    2ASP     BB  435   5.664   6.232   6.089  0.0901 -0.0186  0.0250
    2ASP    SC1  436   5.902   6.047   6.108 -0.3612  0.2170  0.1013
    3TYR     BB  437   5.717   6.527   6.044  0.0344  0.0753 -0.1732
    3TYR    SC1  438   5.842   6.689   6.271 -0.1109  0.2847  0.0105
    3TYR    SC2  439   6.021   6.890   6.293 -0.1033  0.2762  0.0264
    3TYR    SC3  440   5.872   6.818   6.507 -0.0063  0.1722  0.0601
    1TYR     BB  441   2.684   2.282   5.953  0.3893  0.0226 -0.2675
    1TYR    SC1  442   2.761   2.221   6.222  0.1600 -0.0055 -0.0911
    1TYR    SC2  443   2.766   2.269   6.488 -0.0163 -0.1957 -0.0507
    1TYR    SC3  444   2.898   2.057   6.386 -0.1477 -0.2650 -0.0808
    2ASP     BB  445   2.386   2.431   5.952  0.0633  0.0255  0.3167
    2ASP    SC1  446   2.341   2.635   5.688 -0.0978  0.0704 -0.0138
    3TYR     BB  447   2.214   2.206   6.106  0.1254  0.2202 -0.2590
    3TYR    SC1  448   2.357   1.960   6.246 -0.1520 -0.0181 -0.0777
    3TYR    SC2  449   2.497   1.836   6.441 -0.1310  0.4592  0.2302
    3TYR    SC3  450   2.578   1.817   6.184  0.0065  0.0516  0.2949
    1TYR     BB  451   5.051   6.322   6.764  0.2140  0.3275  0.2250
    1TYR    SC1  452   5.043   6.005   6.701  0.1626 -0.0703  0.3271
    1TYR    SC2  453   5.192   5.801   6.605  0.1107 -0.1052  0.3206
    1TYR    SC3  454   4.951   5.752   6.717 -0.1081 -0.0099 -0.0851
    2ASP     BB  455   4.869   6.505   6.942 -0.4433 -0.1043  0.1684
    2ASP    SC1  456   4.579   6.593   6.954  0.0331  0.0828  0.0768
    3TYR     BB  457   5.041   6.535   7.234 -0.1729  0.1407  0.2249
    3TYR    SC1  458   4.959   6.790   7.377 -0.1882  0.0082  0.0642
    3TYR    SC2  459   4.861   6.952   7.569 -0.1402 -0.1767  0.2483
    3TYR    SC3  460   4.831   7.018   7.309 -0.5076 -0.0914  0.3057
    1TYR     BB  461   3.929   4.955   1.453 -0.2689 -0.1714 -0.2706
    1TYR    SC1  462   4.187   4.735   1.514  0.0471 -0.0613  0.2404
    1TYR    SC2  463   4.235   4.544   1.699 -0.1264 -0.2314  0.1144
    1TYR    SC3  464   4.342   4.522   1.453 -0.5992 -0.4765 -0.0851
    2ASP     BB  465   3.918   5.182   1.678 -0.1663  0.0696  0.2117
    2ASP    SC1  466   4.175   5.085   1.908  0.0925 -0.0132 -0.2126
    3TYR     BB  467   3.705   5.353   1.608 -0.0040 -0.1789  0.0032
    3TYR    SC1  468   3.574   5.337   1.331 -0.0160  0.1436  0.0234
    3TYR    SC2  469   3.402   5.225   1.156 -0.2385  0.0828  0.2703
    3TYR    SC3  470   3.553   5.437   1.083 -0.2414 -0.0117 -0.0239
    1TYR     BB  471   3.101   3.923   1.219  0.1378  0.1213 -0.2532
    1TYR    SC1  472   3.373   4.038   1.096 -0.1833 -0.1151 -0.1334
    1TYR    SC2  473   3.626   4.110   1.157 -0.2677  0.1337 -0.0603
    1TYR    SC3  474   3.567   4.023   0.908 -0.1019  0.0226 -0.0630
    2ASP     BB  475   2.891   4.074   1.295  0.3242  0.0882  0.0583
    2ASP    SC1  476   2.603   4.058   1.452  0.0491 -0.2835 -0.3295
    3TYR     BB  477   2.806   4.301   1.071 -0.1075  0.2124  0.2159
    3TYR    SC1  478   2.861   4.128   0.805 -0.1292  0.0586 -0.1685
    3TYR    SC2  479   2.712   4.106   0.580 -0.1418  0.3306 -0.1909
    3TYR    SC3  480   2.892   3.914   0.643 -0.4200  0.0495 -0.2198
    1TYR     BB  481   4.951   7.012   5.855 -0.0369 -0.0014 -0.0993
    1TYR    SC1  482   4.941   6.764   5.675 -0.1563  0.0726  0.4461
    1TYR    SC2  483   4.969   6.585   5.474 -0.0428  0.0220  0.5057
    1TYR    SC3  484   4.733   6.711   5.510  0.0086  0.2276  0.1782
    2ASP     BB  485   4.664   7.081   5.875  0.0384  0.0572 -0.2920
    2ASP    SC1  486   4.525   7.358   6.005  0.2094  0.0114 -0.0301
    3TYR     BB  487   4.430   6.878   5.934  0.1849  0.1002 -0.1149
    3TYR    SC1  488   4.545   6.607   5.919  0.2206  0.0227  0.0754
    3TYR    SC2  489   4.468   6.351   5.878 -0.1517  0.0588  0.4618
    3TYR    SC3  490   4.711   6.403   5.983  0.0490 -0.1105  0.1065
    1TYR     BB  491   5.272   5.769   4.973  0.0552 -0.6037 -0.0820
    1TYR    SC1  492   5.271   5.509   4.859  0.0521  0.0644 -0.1436
    1TYR    SC2  493   5.221   5.389   4.623  0.2105 -0.1007 -0.0965
    1TYR    SC3  494   5.387   5.272   4.801 -0.0620 -0.0785  0.1821
    2ASP     BB  495   5.283   5.638   5.287  0.4148 -0.2392  0.0760
    2ASP    SC1  496   5.577   5.645   5.370  0.1403  0.2610  0.1483
    3TYR     BB  497   5.034   5.598   5.499 -0.0879 -0.5730  0.0155
    3TYR    SC1  498   4.886   5.827   5.668 -0.1516 -0.0978  0.3008
    3TYR    SC2  499   4.872   6.094   5.699  0.0128 -0.0406 -0.0573
    3TYR    SC3  500   4.668   5.938   5.781 -0.1590  0.2087  0.0031
    1TYR     BB  501   5.746   6.455   5.527 -0.0233  0.1756 -0.1515
    1TYR    SC1  502   5.476   6.303   5.478 -0.0362  0.2609  0.2921
    1TYR    SC2  503   5.259   6.309   5.318 -0.0059  0.1155  0.2437
    1TYR    SC3  504   5.308   6.092   5.471  0.2825  0.0017  0.0024
    2ASP     BB  505   6.108   6.439   5.590  0.2618  0.0476  0.3903
    2ASP    SC1  506   6.219   6.268   5.406  0.2779  0.0765 -0.2922
    3TYR     BB  507   6.190   6.418   5.883 -0.1065 -0.0477  0.0322
    3TYR    SC1  508   6.375   6.669   5.962 -0.0660 -0.0725 -0.2712
    3TYR    SC2  509   6.448   6.921   6.027 -0.3850 -0.0213 -0.0861
    3TYR    SC3  510   6.626   6.719   6.049 -0.2397  0.1265  0.1498
    1TYR     BB  511   3.068   6.049   3.970 -0.0654  0.0002 -0.1383
    1TYR    SC1  512   2.744   6.076   4.032  0.4079  0.2398 -0.2281
    1TYR    SC2  513   2.498   6.028   3.932  0.3777 -0.1652  0.0120
    1TYR    SC3  514   2.526   6.164   4.164  0.3816 -0.1358 -0.0055
    2ASP     BB  515   3.162   6.337   3.821 -0.1770 -0.2524 -0.0685
    2ASP    SC1  516   3.052   6.564   4.047  0.2530  0.0781 -0.1261
    3TYR     BB  517   3.002   6.353   3.515 -0.0333 -0.2062  0.4692
    3TYR    SC1  518   3.233   6.400   3.291 -0.2603  0.0838  0.2183
    3TYR    SC2  519   3.387   6.370   3.071 -0.0107 -0.1038  0.4115
    3TYR    SC3  520   3.434   6.574   3.242 -0.4079  0.2370  0.1406
    1TYR     BB  521   1.728   1.214   7.916  0.0662  0.1243 -0.0396
    1TYR    SC1  522   1.669   1.252   8.210 -0.0276  0.0193  0.0041
    1TYR    SC2  523   1.624   1.160   8.459 -0.0350 -0.0190 -0.0113
    1TYR    SC3  524   1.525   1.400   8.385 -0.1020 -0.0437 -0.0029
    2ASP     BB  525   1.758   0.891   7.910 -0.0929  0.2752 -0.0530
    2ASP    SC1  526   1.783   0.773   8.209  0.2744  0.1397  0.0057
    3TYR     BB  527   1.662   0.736   7.741  0.0868 -0.2131  0.2775
    3TYR    SC1  528   1.746   0.493   7.651 -0.0752  0.1845  0.1186
    3TYR    SC2  529   1.651   0.241   7.673  0.0190  0.1109 -0.2406
    3TYR    SC3  530   1.753   0.327   7.438 -0.0100  0.4865 -0.1236
    1TYR     BB  531   3.945   6.711   6.023  0.1867 -0.1258 -0.1465
    1TYR    SC1  532   4.055   6.633   5.712  0.1920  0.0645  0.2214
    1TYR    SC2  533   4.002   6.506   5.480 -0.2472  0.0733  0.3060
    1TYR    SC3  534   4.219   6.666   5.500 -0.0161 -0.1872  0.0128
    2ASP     BB  535   3.859   6.438   6.128  0.1469 -0.0174  0.0037
    2ASP    SC1  536   3.860   6.508   6.422  0.0312 -0.2473  0.3377
    3TYR     BB  537   3.829   6.222   6.004  0.1456 -0.0382  0.1197
    3TYR    SC1  538   4.031   6.169   5.752 -0.2981 -0.0616 -0.0337
    3TYR    SC2  539   4.197   5.957   5.762 -0.1805  0.0390  0.2582
    3TYR    SC3  540   4.128   6.062   5.523  0.2890  0.0816  0.1274
    1TYR     BB  541   3.923   5.895   4.774  0.0381  0.1403  0.0372
    1TYR    SC1  542   3.993   5.752   5.030 -0.5362 -0.0033 -0.0686
    1TYR    SC2  543   4.083   5.531   5.157  0.3127  0.3446  0.0219
    1TYR    SC3  544   3.982   5.737   5.299 -0.2591  0.1329 -0.0447
    2ASP     BB  545   4.001   6.236   4.813 -0.1854  0.2234  0.1757
    2ASP    SC1  546   3.870   6.316   4.559 -0.1428  0.3351  0.1921
    3TYR     BB  547   4.149   6.303   5.080  0.3446 -0.0166 -0.1720
    3TYR    SC1  548   4.304   6.534   5.039 -0.2645 -0.0940  0.4906
    3TYR    SC2  549   4.415   6.755   5.148 -0.2122  0.0798  0.1040
    3TYR    SC3  550   4.425   6.716   4.881 -0.0503 -0.4893  0.1758
    1TYR     BB  551   2.233   3.863   8.256 -0.3177 -0.3182 -0.0282
    1TYR    SC1  552   2.483   3.723   8.193  0.1044  0.1373  0.2060
    1TYR    SC2  553   2.657   3.625   8.011 -0.1418 -0.0376  0.0569
    1TYR    SC3  554   2.644   3.517   8.258 -0.1614 -0.1437  0.0099
    2ASP     BB  555   1.986   3.762   8.334  0.0839 -0.1947  0.1793
    2ASP    SC1  556   1.814   3.968   8.537  0.0236  0.1881 -0.1203
    3TYR     BB  557   1.770   3.631   8.156  0.1484  0.2870 -0.3810
    3TYR    SC1  558   1.500   3.771   8.060  0.0456  0.3152 -0.1478
    3TYR    SC2  559   1.234   3.801   8.028 -0.0022 -0.1880 -0.3358
    3TYR    SC3  560   1.404   3.909   7.848 -0.0573  0.2810 -0.1242
    1TYR     BB  561   2.220   3.406   8.608  0.2778  0.0856 -0.1351
    1TYR    SC1  562   2.428   3.605   8.642  0.0210  0.1231  0.2982
    1TYR    SC2  563   2.638   3.634   8.810  0.1409  0.0715  0.1596
    1TYR    SC3  564   2.586   3.823   8.624 -0.0656  0.1892  0.3316
    2ASP     BB  565   2.268   3.172   8.388  0.4417 -0.0406 -0.2165
    2ASP    SC1  566   2.249   2.935   8.642  0.2887  0.1981  0.1221
    3TYR     BB  567   2.191   3.375   8.138 -0.0465 -0.0104 -0.0435
    3TYR    SC1  568   2.350   3.307   7.883  0.1874  0.0861 -0.0348
    3TYR    SC2  569   2.457   3.318   7.636  0.1585  0.0274 -0.0502
    3TYR    SC3  570   2.594   3.201   7.838  0.1103 -0.0770 -0.0774
    1TYR     BB  571   1.835   5.400   0.841  0.0819  0.3180 -0.0013
    1TYR    SC1  572   1.901   5.110   0.687 -0.2548 -0.2114 -0.0253
    1TYR    SC2  573   1.993   4.970   0.476  0.2545  0.0840 -0.0179
    1TYR    SC3  574   2.163   5.048   0.671 -0.1876 -0.1174  0.4789
    2ASP     BB  575   2.157   5.411   1.035 -0.2733  0.1599 -0.0330
    2ASP    SC1  576   2.165   5.636   1.230 -0.1724 -0.1099 -0.0564
    3TYR     BB  577   2.461   5.270   0.991  0.2562 -0.0191  0.0520
    3TYR    SC1  578   2.613   5.188   0.765  0.2050  0.1850  0.0105
    3TYR    SC2  579   2.756   5.235   0.541  0.0486 -0.1076 -0.1587
    3TYR    SC3  580   2.612   5.008   0.565 -0.3215  0.1332  0.0420
    1TYR     BB  581   3.678   4.435   3.607  0.2903 -0.1443  0.2371
    1TYR    SC1  582   3.726   4.455   3.935 -0.0643 -0.0519  0.0240
    1TYR    SC2  583   3.937   4.512   4.094 -0.1700 -0.0781  0.1770
    1TYR    SC3  584   3.726   4.679   4.085 -0.0857  0.0217 -0.0845
    2ASP     BB  585   3.667   4.103   3.586  0.1584  0.0686  0.1699
    2ASP    SC1  586   3.475   4.078   3.340  0.2438 -0.3061  0.1342
    3TYR     BB  587   3.960   4.026   3.640 -0.1510  0.0962 -0.2465
    3TYR    SC1  588   4.099   4.270   3.726 -0.1914  0.1196  0.1773
    3TYR    SC2  589   4.288   4.347   3.903  0.1235 -0.2723  0.0332
    3TYR    SC3  590   4.187   4.525   3.728  0.4415 -0.0769  0.0394
    1TYR     BB  591   1.939   1.219   7.462 -0.0925  0.1763 -0.0274
    1TYR    SC1  592   2.260   1.207   7.371  0.0528 -0.0047  0.2225
    1TYR    SC2  593   2.518   1.246   7.443  0.1157  0.1932 -0.0832
    1TYR    SC3  594   2.406   1.403   7.254 -0.1258 -0.1133 -0.2053
    2ASP     BB  595   1.759   1.005   7.343 -0.2332 -0.2803  0.2719
    2ASP    SC1  596   1.467   1.088   7.417  0.1092  0.1808 -0.3079
    3TYR     BB  597   1.713   0.826   7.038  0.0769 -0.4305  0.2705
    3TYR    SC1  598   1.819   0.552   7.021 -0.0079  0.1707 -0.2266
    3TYR    SC2  599   1.722   0.309   6.953  0.1124  0.0184  0.1199
    3TYR    SC3  600   1.980   0.370   6.902  0.0709  0.0930 -0.0064
    1TYR     BB  601   4.223   4.457   5.349  0.0323  0.1471 -0.0121
    1TYR    SC1  602   4.383   4.331   5.561 -0.1927  0.2954  0.2321
    1TYR    SC2  603   4.622   4.253   5.658 -0.0615  0.1932 -0.1485
    1TYR    SC3  604   4.395   4.194   5.793  0.0937 -0.1111 -0.0070
    2ASP     BB  605   3.917   4.508   5.479 -0.0147 -0.1666 -0.0995
    2ASP    SC1  606   3.940   4.340   5.757 -0.1618 -0.0419  0.1527
    3TYR     BB  607   3.664   4.549   5.374  0.2297  0.0262 -0.2528
    3TYR    SC1  608   3.480   4.786   5.412  0.0665  0.1563 -0.0634
    3TYR    SC2  609   3.500   4.988   5.234 -0.1019  0.0843 -0.1678
    3TYR    SC3  610   3.266   4.941   5.360  0.0118  0.1259  0.0671
    1TYR     BB  611   5.059   5.496   7.129  0.1860 -0.1642 -0.0450
    1TYR    SC1  612   5.206   5.389   6.915 -0.2407 -0.0814  0.0111
    1TYR    SC2  613   5.211   5.369   6.646 -0.1512  0.0107  0.0053
    1TYR    SC3  614   5.442   5.390   6.784 -0.2053  0.1964  0.0703
    2ASP     BB  615   4.923   5.806   7.214  0.2593  0.0453  0.3317
    2ASP    SC1  616   4.626   5.770   7.374  0.0438 -0.3148  0.0960
    3TYR     BB  617   5.050   6.024   7.223 -0.0168 -0.0585  0.2558
    3TYR    SC1  618   5.334   6.019   7.054 -0.1375  0.1234 -0.1950
    3TYR    SC2  619   5.475   5.812   6.953 -0.1224  0.0555 -0.0373
    3TYR    SC3  620   5.506   6.059   6.849  0.0802  0.0332 -0.0357
    1TYR     BB  621   2.948   1.554   7.335  0.2562 -0.0856  0.1643
    1TYR    SC1  622   2.705   1.732   7.390  0.0348 -0.0875  0.2656
    1TYR    SC2  623   2.511   1.920   7.371  0.4093  0.2908 -0.0655
    1TYR    SC3  624   2.662   1.905   7.594 -0.0674 -0.1038  0.2588
    2ASP     BB  625   2.925   1.442   7.059 -0.1634 -0.3591 -0.0127
    2ASP    SC1  626   3.142   1.434   6.823 -0.1094 -0.0610 -0.2237
    3TYR     BB  627   2.704   1.276   6.906 -0.2828  0.0089  0.1765
    3TYR    SC1  628   2.661   1.394   6.609 -0.0626  0.2608  0.0141
    3TYR    SC2  629   2.680   1.422   6.341  0.3683  0.0318  0.0099
    3TYR    SC3  630   2.812   1.592   6.504  0.1482  0.1393  0.0804
    1TYR     BB  631   4.096   5.420   3.963 -0.2750 -0.0210 -0.2099
    1TYR    SC1  632   3.957   5.700   4.044 -0.7314 -0.1325 -0.2361
    1TYR    SC2  633   4.068   5.937   3.977  0.0843 -0.4413 -0.1187
    1TYR    SC3  634   3.866   5.929   4.156 -0.1146  0.1615 -0.2851
    2ASP     BB  635   4.046   5.476   3.638 -0.4351 -0.2706 -0.0089
    2ASP    SC1  636   4.324   5.446   3.498 -0.0990  0.1117  0.2167
    3TYR     BB  637   3.799   5.723   3.469 -0.0760  0.3137 -0.1158
    3TYR    SC1  638   3.660   5.903   3.619 -0.1208  0.1541 -0.1282
    3TYR    SC2  639   3.443   6.058   3.577 -0.2915  0.1031  0.4561
    3TYR    SC3  640   3.604   6.106   3.788  0.0981 -0.0533  0.2084
    1TYR     BB  641   1.827   1.754   7.844 -0.3962  0.5159  0.1980
    1TYR    SC1  642   1.567   1.770   8.026 -0.2145 -0.0731 -0.2222
    1TYR    SC2  643   1.515   1.991   8.171  0.1469 -0.1110 -0.0212
    1TYR    SC3  644   1.361   1.772   8.200 -0.0270  0.0117  0.0045
    2ASP     BB  645   1.861   2.021   7.720  0.0891  0.0607 -0.0027
    2ASP    SC1  646   2.160   2.145   7.686  0.0679  0.2055  0.0381
    3TYR     BB  647   1.602   2.219   7.651  0.3424  0.1567  0.0870
    3TYR    SC1  648   1.293   2.080   7.642 -0.2251  0.0364  0.0822
    3TYR    SC2  649   1.065   1.965   7.554 -0.2422  0.1173  0.0195
    3TYR    SC3  650   1.179   1.880   7.783 -0.1528 -0.1530 -0.1201
    1TYR     BB  651   4.559   5.050   6.023 -0.3886 -0.1482 -0.1416
    1TYR    SC1  652   4.745   4.796   6.025  0.0265  0.1436  0.4119
    1TYR    SC2  653   4.714   4.528   6.004  0.0238  0.1500  0.3283
    1TYR    SC3  654   4.944   4.630   6.101  0.0819  0.1201  0.2239
    2ASP     BB  655   4.483   5.108   6.310  0.1419 -0.0371 -0.0065
    2ASP    SC1  656   4.423   4.855   6.466  0.1248 -0.2190 -0.0789
    3TYR     BB  657   4.626   5.378   6.497  0.0582  0.1051 -0.2001
    3TYR    SC1  658   4.838   5.466   6.297 -0.0880  0.1057 -0.2329
    3TYR    SC2  659   5.074   5.549   6.195  0.1031 -0.1469 -0.0125
    3TYR    SC3  660   4.867   5.497   6.031  0.2552 -0.0935 -0.2263
    1TYR     BB  661   2.616   5.712   0.006  0.2803  0.4478 -0.5510
    1TYR    SC1  662   2.620   5.386  -0.051  0.0774 -0.0202 -0.0090
    1TYR    SC2  663   2.667   5.129   0.018  0.0825 -0.0312 -0.0532
    1TYR    SC3  664   2.526   5.185  -0.205  0.1877  0.0056 -0.1113
    2ASP     BB  665   2.354   5.696   0.291 -0.1848  0.1502 -0.1340
    2ASP    SC1  666   2.111   5.816   0.139  0.2087 -0.0220 -0.3059
    3TYR     BB  667   2.357   5.464   0.427  0.1410  0.3168  0.2192
    3TYR    SC1  668   2.268   5.239   0.241  0.0831 -0.1122  0.0200
    3TYR    SC2  669   2.304   4.973   0.206  0.0316 -0.1510  0.2411
    3TYR    SC3  670   2.122   5.106   0.057  0.1702 -0.2061  0.0173
    1TYR     BB  671   5.177   7.135   5.401  0.2135 -0.0363  0.0046
    1TYR    SC1  672   5.002   7.307   5.448 -0.0493 -0.1458  0.1278
    1TYR    SC2  673   4.881   7.503   5.306  0.2084 -0.1411 -0.0943
    1TYR    SC3  674   4.798   7.447   5.557  0.1505  0.2739 -0.0132
    2ASP     BB  675   5.464   7.096   5.495  0.1153  0.0564 -0.0692
    2ASP    SC1  676   5.627   7.346   5.420 -0.3325  0.0210  0.1731
    3TYR     BB  677   5.463   6.875   5.645  0.1764 -0.1097 -0.2231
    3TYR    SC1  678   5.316   6.605   5.773  0.0982 -0.2165  0.0752
    3TYR    SC2  679   5.207   6.366   5.839 -0.1487 -0.1157  0.0440
    3TYR    SC3  680   5.215   6.566   6.021  0.1288 -0.1686  0.0953
    1TYR     BB  681   3.139   5.242   4.537 -0.1026 -0.2062 -0.1843
    1TYR    SC1  682   3.320   5.060   4.447 -0.1119 -0.1812 -0.0737
    1TYR    SC2  683   3.367   4.798   4.399  0.1288 -0.0634 -0.5611
    1TYR    SC3  684   3.549   4.984   4.326  0.1258  0.2327  0.0882
    2ASP     BB  685   2.849   5.415   4.386  0.0668 -0.1532  0.1027
    2ASP    SC1  686   2.949   5.663   4.285  0.0251  0.0630 -0.0823
    3TYR     BB  687   2.659   5.506   4.649  0.3915 -0.1732 -0.0694
    3TYR    SC1  688   2.570   5.757   4.691 -0.0492 -0.1562  0.0214
    3TYR    SC2  689   2.427   5.953   4.809 -0.0627 -0.1025 -0.0828
    3TYR    SC3  690   2.569   6.005   4.585  0.0100 -0.1891 -0.0575
    1TYR     BB  691   1.613   4.857   5.952 -0.1535  0.0127 -0.0785
    1TYR    SC1  692   1.748   5.109   6.123  0.0067 -0.1743 -0.1811
    1TYR    SC2  693   1.822   5.336   6.247  0.2529 -0.3586  0.0236
    1TYR    SC3  694   1.704   5.347   6.005  0.6945 -0.0286 -0.1952
    2ASP     BB  695   1.707   4.975   5.613  0.0191 -0.2545 -0.2049
    2ASP    SC1  696   1.619   4.856   5.325 -0.1975 -0.1718 -0.3209
    3TYR     BB  697   1.983   5.105   5.699 -0.2780 -0.0127  0.2603
    3TYR    SC1  698   2.087   5.374   5.707 -0.0924 -0.2698 -0.1889
    3TYR    SC2  699   2.066   5.592   5.864 -0.0642 -0.0777 -0.4433
    3TYR    SC3  700   2.306   5.522   5.762 -0.0822 -0.2011 -0.4027
    1TYR     BB  701   2.502   1.969   8.524  0.0359  0.1094  0.0349
    1TYR    SC1  702   2.558   2.047   8.825  0.5163 -0.4410 -0.2185
    1TYR    SC2  703   2.730   2.200   8.967  0.0027 -0.0996  0.0788
    1TYR    SC3  704   2.548   2.047   9.095  0.0397 -0.4179 -0.2264
    2ASP     BB  705   2.489   1.700   8.449 -0.0463  0.3059  0.1621
    2ASP    SC1  706   2.373   1.544   8.712  0.0872  0.0388  0.1239
    3TYR     BB  707   2.621   1.467   8.282 -0.0741 -0.0891  0.1002
    3TYR    SC1  708   2.741   1.557   8.005 -0.3897 -0.1862  0.0869
    3TYR    SC2  709   2.916   1.602   7.805 -0.2469 -0.1422  0.2185
    3TYR    SC3  710   2.710   1.432   7.768 -0.2234 -0.1346  0.0359
    1TYR     BB  711   2.783   4.651   5.227 -0.0685 -0.0486  0.0155
    1TYR    SC1  712   2.733   4.855   4.993 -0.1274 -0.3128 -0.1314
    1TYR    SC2  713   2.700   4.949   4.742  0.1528 -0.2321 -0.1420
    1TYR    SC3  714   2.827   5.099   4.927 -0.1560 -0.2396  0.0869
    2ASP     BB  715   2.665   4.420   5.233 -0.0138  0.2917  0.1459
    2ASP    SC1  716   2.334   4.379   5.225 -0.0367 -0.0005 -0.0706
    3TYR     BB  717   2.816   4.231   5.046 -0.1217 -0.1967 -0.0066
    3TYR    SC1  718   2.894   3.982   5.099  0.1512  0.0276  0.2155
    3TYR    SC2  719   2.811   3.726   5.121 -0.2018  0.1117 -0.0295
    3TYR    SC3  720   3.074   3.780   5.088 -0.1472 -0.2360 -0.2338
    1TYR     BB  721   2.854   2.806   7.810  0.0167 -0.2401 -0.1963
    1TYR    SC1  722   2.779   2.548   7.646 -0.1034  0.3308 -0.1212
    1TYR    SC2  723   2.568   2.379   7.647 -0.1546  0.3944 -0.1126
    1TYR    SC3  724   2.796   2.310   7.520 -0.0863  0.2108  0.1009
    2ASP     BB  725   3.065   2.703   8.052  0.1634  0.1236 -0.0687
    2ASP    SC1  726   3.323   2.813   8.075  0.0745 -0.1267 -0.0187
    3TYR     BB  727   2.923   2.481   8.255  0.2001  0.0417  0.2807
    3TYR    SC1  728   2.818   2.257   8.136 -0.2243  0.4103 -0.4495
    3TYR    SC2  729   2.897   2.064   7.964 -0.2616 -0.1900  0.1565
    3TYR    SC3  730   2.649   2.058   8.069 -0.3219  0.2997  0.0723
    1TYR     BB  731   3.674   5.384   5.408 -0.0119 -0.3419  0.2073
    1TYR    SC1  732   3.579   5.549   5.209  0.4194  0.0917  0.1522
    1TYR    SC2  733   3.596   5.520   4.941 -0.1646 -0.2469  0.1319
    1TYR    SC3  734   3.503   5.750   5.046 -0.0818 -0.1699  0.0384
    2ASP     BB  735   3.485   5.349   5.707  0.1402  0.1507  0.1625
    2ASP    SC1  736   3.192   5.486   5.683 -0.0713  0.0611  0.2302
    3TYR     BB  737   3.517   5.273   5.972  0.1737  0.1993  0.0560
    3TYR    SC1  738   3.809   5.180   6.115  0.0091 -0.0577  0.0314
    3TYR    SC2  739   3.995   5.025   6.234  0.0664 -0.0096  0.0048
    3TYR    SC3  740   4.052   5.149   6.001 -0.0991 -0.2318 -0.1593
    1TYR     BB  741   4.058   7.054   5.048 -0.0695 -0.2690 -0.0023
    1TYR    SC1  742   4.223   7.200   4.861 -0.3665 -0.0585 -0.2897
    1TYR    SC2  743   4.459   7.144   4.742 -0.3071 -0.0201 -0.1923
    1TYR    SC3  744   4.346   7.387   4.709 -0.1170  0.1152  0.1043
    2ASP     BB  745   3.920   7.150   5.343 -0.0259  0.2926  0.0445
    2ASP    SC1  746   3.739   7.391   5.188 -0.1712 -0.0273  0.0653
    3TYR     BB  747   3.762   6.955   5.460 -0.0898 -0.1929 -0.0884
    3TYR    SC1  748   3.532   6.971   5.656 -0.3535 -0.0019 -0.1488
    3TYR    SC2  749   3.537   7.009   5.923  0.2425 -0.0492 -0.1362
    3TYR    SC3  750   3.301   6.985   5.795 -0.0740  0.3579  0.3204
    1TYR     BB  751   2.377   5.044   1.382 -0.3780 -0.1945 -0.0832
    1TYR    SC1  752   2.091   5.038   1.327 -0.0460  0.1432  0.1513
    1TYR    SC2  753   1.947   4.978   1.105  0.0524  0.4377  0.0009
    1TYR    SC3  754   1.841   4.938   1.350  0.0514 -0.1787 -0.0808
    2ASP     BB  755   2.495   5.094   1.792  0.4581  0.0619 -0.1016
    2ASP    SC1  756   2.196   4.983   1.875 -0.1289 -0.0879 -0.2631
    3TYR     BB  757   2.658   4.941   1.844 -0.4291 -0.3032 -0.0991
    3TYR    SC1  758   2.718   4.751   1.592 -0.2952 -0.0100 -0.1749
    3TYR    SC2  759   2.785   4.503   1.512  0.2717  0.0495  0.0513
    3TYR    SC3  760   2.782   4.707   1.335 -0.2912 -0.1162 -0.1561
    1TYR     BB  761   4.306   4.291   2.790 -0.0062 -0.1034 -0.1668
    1TYR    SC1  762   4.048   4.276   2.645 -0.1706  0.1712  0.0241
    1TYR    SC2  763   3.907   4.373   2.435 -0.0973  0.2092 -0.0079
    1TYR    SC3  764   3.883   4.114   2.506 -0.0218  0.1632 -0.1473
    2ASP     BB  765   4.369   4.628   2.763  0.1182 -0.1148 -0.0907
    2ASP    SC1  766   4.635   4.764   2.927  0.1162  0.3421 -0.3019
    3TYR     BB  767   4.133   4.788   2.746 -0.1697 -0.1220 -0.1254
    3TYR    SC1  768   4.192   5.043   2.873 -0.1543 -0.2203  0.3692
    3TYR    SC2  769   4.217   5.144   3.121  0.2630 -0.4019  0.4114
    3TYR    SC3  770   4.400   5.203   2.933 -0.1976 -0.0346  0.0499
    1TYR     BB  771   5.334   4.753   4.940 -0.1864  0.3260 -0.1412
    1TYR    SC1  772   5.157   4.915   4.792 -0.1298  0.0108  0.2355
    1TYR    SC2  773   4.911   5.020   4.752 -0.2155 -0.2495  0.0428
    1TYR    SC3  774   5.038   4.891   4.551 -0.1174 -0.5163  0.2673
    2ASP     BB  775   5.530   4.953   5.156 -0.3394 -0.2429  0.2443
    2ASP    SC1  776   5.833   4.931   5.113 -0.1923  0.2702  0.2955
    3TYR     BB  777   5.355   5.173   5.293 -0.0196 -0.0655 -0.6652
    3TYR    SC1  778   5.058   5.171   5.211 -0.3064 -0.1939 -0.0192
    3TYR    SC2  779   4.887   5.340   5.087 -0.1932 -0.0160  0.0617
    3TYR    SC3  780   4.794   5.161   5.267 -0.2984  0.0531  0.0771
    1TYR     BB  781   2.676   3.355   5.973 -0.0561  0.1219 -0.3339
    1TYR    SC1  782   2.412   3.518   6.131  0.1172 -0.0032 -0.0385
    1TYR    SC2  783   2.230   3.709   6.184  0.1379  0.0515 -0.1603
    1TYR    SC3  784   2.150   3.454   6.143  0.0731  0.0989 -0.3428
    2ASP     BB  785   2.553   3.096   5.861 -0.3134 -0.0342  0.1567
    2ASP    SC1  786   2.673   2.836   6.023 -0.1293 -0.1975 -0.1507
    3TYR     BB  787   2.317   3.184   5.610  0.0509 -0.2265 -0.0443
    3TYR    SC1  788   2.252   3.480   5.681  0.5221 -0.2419  0.0482
    3TYR    SC2  789   2.387   3.710   5.725  0.3057 -0.0992 -0.0151
    3TYR    SC3  790   2.119   3.703   5.755  0.3005 -0.3240 -0.0909
    1TYR     BB  791   3.768   5.423   4.382 -0.0749 -0.0740  0.0124
    1TYR    SC1  792   3.798   5.234   4.607 -0.4102  0.1891 -0.0200
    1TYR    SC2  793   3.688   5.104   4.818 -0.0841 -0.1626 -0.0539
    1TYR    SC3  794   3.957   5.131   4.800 -0.1287  0.3142 -0.1777
    2ASP     BB  795   3.494   5.567   4.384 -0.4181 -0.1813 -0.0265
    2ASP    SC1  796   3.488   5.836   4.537 -0.1596  0.1177  0.0873
    3TYR     BB  797   3.446   5.684   4.051 -0.0554 -0.2788 -0.1070
    3TYR    SC1  798   3.583   5.488   3.908 -0.0650  0.1190 -0.2867
    3TYR    SC2  799   3.569   5.314   3.701 -0.0578  0.0379 -0.2199
    3TYR    SC3  800   3.631   5.225   3.948 -0.0648  0.1344 -0.1827
    1TYR     BB  801   3.317   6.546   5.159 -0.1247 -0.1280  0.1113
    1TYR    SC1  802   3.115   6.491   5.374  0.0387  0.1936 -0.1212
    1TYR    SC2  803   3.075   6.652   5.588 -0.0040 -0.0477  0.0576
    1TYR    SC3  804   3.050   6.384   5.614  0.3900 -0.1133 -0.1532
    2ASP     BB  805   3.166   6.861   5.095 -0.2672  0.0177  0.3458
    2ASP    SC1  806   3.412   7.027   5.181  0.0465  0.0598  0.1789
    3TYR     BB  807   2.892   6.810   5.019 -0.1872 -0.0214  0.0801
    3TYR    SC1  808   2.702   6.706   5.240  0.0985 -0.3733  0.2647
    3TYR    SC2  809   2.635   6.626   5.490  0.0902  0.1035  0.4282
    3TYR    SC3  810   2.443   6.709   5.319  0.0909 -0.2599  0.2366
    1TYR     BB  811   1.728   1.410   6.986 -0.2123  0.0023 -0.1535
    1TYR    SC1  812   2.015   1.273   6.904 -0.0166  0.1276  0.1161
    1TYR    SC2  813   2.242   1.194   6.782 -0.2042 -0.1205 -0.0847
    1TYR    SC3  814   2.152   1.061   6.999 -0.1122  0.0353  0.0512
    2ASP     BB  815   1.637   1.561   6.684 -0.1193 -0.0794 -0.0772
    2ASP    SC1  816   1.539   1.837   6.704 -0.1157  0.1000 -0.0245
    3TYR     BB  817   1.645   1.385   6.469 -0.2906 -0.0152  0.1592
    3TYR    SC1  818   1.834   1.193   6.466 -0.0256 -0.1048  0.1107
    3TYR    SC2  819   1.947   1.012   6.301  0.0865  0.1057 -0.0510
    3TYR    SC3  820   1.929   0.961   6.566  0.3979 -0.0103 -0.0468
    1TYR     BB  821   4.873   5.994   5.193 -0.0291  0.0522 -0.0194
    1TYR    SC1  822   4.696   5.775   5.233  0.3207 -0.2373 -0.3289
    1TYR    SC2  823   4.479   5.773   5.395  0.3148  0.0315 -0.3281
    1TYR    SC3  824   4.535   5.558   5.241  0.2485 -0.1790 -0.0671
    2ASP     BB  825   4.694   6.264   5.136 -0.2410  0.0761  0.2097
    2ASP    SC1  826   4.530   6.282   5.398 -0.1054 -0.0008  0.4571
    3TYR     BB  827   4.843   6.473   4.982 -0.0328 -0.1038  0.2182
    3TYR    SC1  828   5.042   6.367   4.799 -0.3566 -0.5376 -0.1714
    3TYR    SC2  829   5.295   6.306   4.874 -0.1802  0.1950 -0.0716
    3TYR    SC3  830   5.235   6.340   4.613 -0.1702  0.0581 -0.0924
    1TYR     BB  831   4.085   4.995   4.251  0.1153 -0.0713  0.0543
    1TYR    SC1  832   3.988   4.804   4.457 -0.0610 -0.0008  0.2636
    1TYR    SC2  833   3.801   4.647   4.573 -0.1352 -0.0803  0.0440
    1TYR    SC3  834   4.049   4.551   4.528 -0.1935 -0.1533 -0.1305
    2ASP     BB  835   4.253   5.217   4.373  0.2694  0.2475 -0.0496
    2ASP    SC1  836   4.541   5.230   4.235 -0.0131  0.0385  0.0012
    3TYR     BB  837   4.214   5.520   4.523 -0.0855  0.2636 -0.1094
    3TYR    SC1  838   4.270   5.787   4.376 -0.0646 -0.1056 -0.1410
    3TYR    SC2  839   4.237   6.055   4.366 -0.2061 -0.1137  0.0418
    3TYR    SC3  840   4.480   5.947   4.318 -0.1292  0.0523  0.0466
    1TYR     BB  841   2.875   5.311   1.427  0.4695 -0.0468  0.2547
    1TYR    SC1  842   2.926   5.091   1.173  0.0666 -0.1152  0.0622
    1TYR    SC2  843   3.112   4.900   1.127  0.2170  0.0401  0.0103
    1TYR    SC3  844   2.901   4.927   0.961  0.1319 -0.1514  0.0819
    2ASP     BB  845   3.134   5.499   1.450 -0.2808  0.1280  0.2688
    2ASP    SC1  846   3.115   5.825   1.437 -0.1194  0.1572  0.2420
    3TYR     BB  847   3.280   5.452   1.699  0.0765 -0.0985  0.0231
    3TYR    SC1  848   3.352   5.724   1.850 -0.0060 -0.1028 -0.0878
    3TYR    SC2  849   3.535   5.920   1.821 -0.0073 -0.1035 -0.1006
    3TYR    SC3  850   3.286   5.980   1.904  0.1199 -0.1517  0.3463
    1TYR     BB  851   2.803   5.128   5.450 -0.1752  0.0765  0.0403
    1TYR    SC1  852   2.772   5.438   5.447 -0.0559  0.1594 -0.0390
    1TYR    SC2  853   2.808   5.658   5.296 -0.1711  0.0561 -0.2224
    1TYR    SC3  854   2.611   5.652   5.479 -0.0822  0.1526 -0.1218
    2ASP     BB  855   2.511   5.019   5.602  0.2751  0.1008 -0.0883
    2ASP    SC1  856   2.423   5.039   5.911  0.0563 -0.1644 -0.1335
    3TYR     BB  857   2.299   4.804   5.414  0.1266  0.1218 -0.1314
    3TYR    SC1  858   2.297   5.022   5.201  0.1135  0.2796  0.0662
    3TYR    SC2  859   2.424   5.250   5.134  0.3158  0.1120 -0.1423
    3TYR    SC3  860   2.353   5.074   4.942  0.1357  0.0111  0.0130
    1TYR     BB  861   2.964   1.042   7.305 -0.0474  0.0522  0.1821
    1TYR    SC1  862   2.856   0.977   7.556  0.0831 -0.0921  0.0566
    1TYR    SC2  863   2.623   0.850   7.608 -0.2016  0.2442 -0.3206
    1TYR    SC3  864   2.756   0.975   7.807 -0.0992 -0.3143 -0.0125
    2ASP     BB  865   3.062   0.793   7.027 -0.1003  0.2007 -0.1321
    2ASP    SC1  866   3.228   0.915   6.795 -0.0070 -0.0880 -0.0380
    3TYR     BB  867   2.918   0.547   7.008 -0.0911 -0.1412  0.1283
    3TYR    SC1  868   2.999   0.262   7.047 -0.1271  0.2139 -0.0138
    3TYR    SC2  869   3.200   0.103   7.131 -0.1224  0.2301  0.0057
    3TYR    SC3  870   3.052   0.032   6.916 -0.1637  0.1661  0.0547
    1TYR     BB  871   2.821   4.896   4.247  0.0105 -0.1971 -0.1236
    1TYR    SC1  872   2.903   4.667   4.426 -0.0284 -0.2560 -0.4027
    1TYR    SC2  873   2.951   4.487   4.622 -0.0839  0.0670 -0.0790
    1TYR    SC3  874   3.028   4.435   4.368 -0.0245 -0.3690  0.0189
    2ASP     BB  875   2.525   5.063   4.250  0.1843 -0.1073 -0.1590
    2ASP    SC1  876   2.297   5.158   4.480 -0.1400  0.1390 -0.2533
    3TYR     BB  877   2.336   5.011   4.011  0.2922 -0.2864  0.0106
    3TYR    SC1  878   2.065   4.941   4.109  0.0906  0.0585  0.1093
    3TYR    SC2  879   1.906   4.755   3.996  0.0784  0.3455 -0.3801
    3TYR    SC3  880   1.801   4.937   4.166  0.0672  0.0027 -0.0007
    1TYR     BB  881   4.422   5.979   4.833 -0.2534 -0.0443  0.0782
    1TYR    SC1  882   4.481   6.243   4.683 -0.0348  0.0447 -0.2109
    1TYR    SC2  883   4.398   6.461   4.548  0.1053  0.3390  0.1540
    1TYR    SC3  884   4.642   6.357   4.499  0.1229  0.3930  0.1268
    2ASP     BB  885   4.655   5.750   4.755  0.3186  0.0201 -0.3667
    2ASP    SC1  886   4.893   5.928   4.668  0.2149  0.1469 -0.1233
    3TYR     BB  887   4.662   5.456   4.704  0.2315 -0.0453  0.0796
    3TYR    SC1  888   4.455   5.281   4.918  0.1730 -0.1037 -0.0639
    3TYR    SC2  889   4.506   5.025   4.987  0.2065 -0.0214  0.2372
    3TYR    SC3  890   4.355   5.180   5.148 -0.2899 -0.0055 -0.2096
    1TYR     BB  891   2.454   3.345   5.171  0.0733  0.1824 -0.0804
    1TYR    SC1  892   2.330   3.629   5.241  0.1499 -0.1511  0.2027
    1TYR    SC2  893   2.181   3.847   5.299 -0.0069 -0.1408 -0.1997
    1TYR    SC3  894   2.449   3.869   5.277  0.0090 -0.0548  0.0464
    2ASP     BB  895   2.759   3.315   5.336  0.0696  0.1477 -0.2422
    2ASP    SC1  896   2.993   3.233   5.090  0.0744 -0.2565 -0.2115
    3TYR     BB  897   2.757   3.515   5.532 -0.3194  0.1493 -0.3031
    3TYR    SC1  898   2.783   3.782   5.554 -0.0295  0.2210 -0.1215
    3TYR    SC2  899   2.735   4.048   5.561  0.2493  0.2715  0.1800
    3TYR    SC3  900   2.985   3.957   5.513  0.1543  0.0606  0.0683
    1TYR     BB  901   2.197   4.544   1.447  0.2746  0.3562  0.0452
    1TYR    SC1  902   2.394   4.496   1.723  0.2924  0.1344  0.1074
    1TYR    SC2  903   2.451   4.552   1.980  0.0192  0.2186  0.1543
    1TYR    SC3  904   2.562   4.337   1.862  0.4543  0.3946  0.2177
    2ASP     BB  905   2.372   4.516   1.211 -0.3037  0.0706  0.0361
    2ASP    SC1  906   2.277   4.229   1.068  0.2897  0.0907  0.2278
    3TYR     BB  907   2.443   4.717   0.981 -0.2247  0.3491 -0.0227
    3TYR    SC1  908   2.417   4.599   0.736 -0.1606  0.2197 -0.0925
    3TYR    SC2  909   2.275   4.620   0.507 -0.1658 -0.0916 -0.1223
    3TYR    SC3  910   2.398   4.387   0.570  0.1885  0.1158 -0.0113
    1TYR     BB  911   3.166   5.993   5.299 -0.1018 -0.0335 -0.1131
    1TYR    SC1  912   3.056   5.941   5.582  0.1114  0.0480  0.1556
    1TYR    SC2  913   3.104   5.977   5.846 -0.0371  0.2066  0.1632
    1TYR    SC3  914   2.866   5.879   5.763  0.0260  0.1134  0.0895
    2ASP     BB  915   2.964   5.978   4.988 -0.1637 -0.1937  0.0223
    2ASP    SC1  916   2.932   6.276   4.876 -0.1129  0.0955 -0.2908
    3TYR     BB  917   3.071   5.746   4.771 -0.3344  0.0484 -0.3525
    3TYR    SC1  918   3.123   5.477   4.948 -0.1952 -0.1348 -0.1404
    3TYR    SC2  919   3.272   5.260   5.009  0.0712  0.0470 -0.1246
    3TYR    SC3  920   3.146   5.397   5.205 -0.1243 -0.1074 -0.1380
    1TYR     BB  921   2.715   3.489   6.642 -0.0547 -0.0618  0.1851
    1TYR    SC1  922   2.434   3.589   6.660  0.1456  0.1738 -0.2141
    1TYR    SC2  923   2.174   3.553   6.596  0.1497  0.1345 -0.2085
    1TYR    SC3  924   2.244   3.612   6.850  0.1184  0.4632 -0.2709
    2ASP     BB  925   2.865   3.680   6.467 -0.0228 -0.0562  0.0769
    2ASP    SC1  926   3.127   3.504   6.386 -0.0460 -0.1133 -0.0128
    3TYR     BB  927   2.880   3.986   6.453 -0.1622  0.3035  0.0545
    3TYR    SC1  928   3.189   4.049   6.454  0.0509  0.0998 -0.2807
    3TYR    SC2  929   3.447   4.082   6.380  0.1792  0.0292  0.1023
    3TYR    SC3  930   3.388   3.956   6.611 -0.2066 -0.0123 -0.0086
    1TYR     BB  931   3.094   4.445   5.566  0.1325 -0.1110  0.0428
    1TYR    SC1  932   3.112   4.714   5.705  0.0623  0.1633 -0.0652
    1TYR    SC2  933   2.932   4.873   5.828  0.2680  0.1400  0.2808
    1TYR    SC3  934   3.191   4.948   5.813  0.2517  0.1386 -0.1467
    2ASP     BB  935   3.369   4.280   5.645 -0.1390 -0.2512  0.1428
    2ASP    SC1  936   3.506   4.041   5.525 -0.2821  0.0504 -0.3623
    3TYR     BB  937   3.495   4.351   5.936  0.1209 -0.1767 -0.0775
    3TYR    SC1  938   3.484   4.615   5.972 -0.2288  0.3456 -0.0617
    3TYR    SC2  939   3.624   4.777   6.136  0.0621  0.1868 -0.1454
    3TYR    SC3  940   3.634   4.815   5.869  0.1461  0.0257 -0.1670
    1TYR     BB  941   4.022   4.987   5.464  0.1181  0.3479 -0.1656
    1TYR    SC1  942   4.044   4.886   5.160 -0.1876 -0.1593  0.0993
    1TYR    SC2  943   3.868   4.759   4.999 -0.1426  0.1709 -0.2268
    1TYR    SC3  944   4.131   4.760   4.938 -0.0861  0.0716  0.0033
    2ASP     BB  945   4.282   4.884   5.614  0.2167 -0.0864  0.2026
    2ASP    SC1  946   4.230   4.710   5.862  0.6528  0.2802  0.2503
    3TYR     BB  947   4.534   4.825   5.501 -0.1540 -0.1385 -0.0917
    3TYR    SC1  948   4.694   4.669   5.352  0.0571 -0.0870  0.1435
    3TYR    SC2  949   4.871   4.697   5.151  0.0944  0.1994  0.2103
    3TYR    SC3  950   4.840   4.458   5.272  0.1757  0.0597 -0.0366
    1TYR     BB  951   3.507   5.113   1.980  0.2299 -0.0470 -0.2395
    1TYR    SC1  952   3.634   4.811   1.955 -0.0857 -0.0640 -0.0478
    1TYR    SC2  953   3.606   4.609   1.779  0.1760 -0.3967  0.2717
    1TYR    SC3  954   3.851   4.674   1.873  0.0973  0.0766  0.1813
    2ASP     BB  955   3.468   5.365   2.211  0.1073  0.1253 -0.0601
    2ASP    SC1  956   3.745   5.542   2.072  0.0242 -0.1363 -0.0409
    3TYR     BB  957   3.314   5.331   2.463  0.2380 -0.0140  0.0553
    3TYR    SC1  958   3.223   5.119   2.631 -0.1377 -0.0415 -0.0512
    3TYR    SC2  959   3.023   5.114   2.811 -0.1162  0.0818 -0.0231
    3TYR    SC3  960   3.187   4.901   2.785  0.0687  0.1733  0.3167
    1TYR     BB  961   3.370   4.233   2.014 -0.2612  0.0641  0.0876
    1TYR    SC1  962   3.691   4.239   2.036  0.1029 -0.0026 -0.6041
    1TYR    SC2  963   3.957   4.282   2.021  0.1534 -0.0468 -0.0784
    1TYR    SC3  964   3.859   4.031   2.000  0.1839 -0.0663  0.0087
    2ASP     BB  965   3.328   4.215   1.626  0.2112 -0.1092 -0.2200
    2ASP    SC1  966   3.484   3.971   1.592 -0.1579 -0.0665 -0.0531
    3TYR     BB  967   3.279   4.427   1.404 -0.0129  0.3702  0.1793
    3TYR    SC1  968   3.209   4.710   1.559  0.0417  0.0012  0.0875
    3TYR    SC2  969   3.115   4.961   1.594  0.0159 -0.0344  0.2906
    3TYR    SC3  970   3.371   4.921   1.518 -0.1159  0.0635 -0.2573
    1TYR     BB  971   2.871   4.877   2.382  0.2101  0.0768  0.0580
    1TYR    SC1  972   2.951   4.700   2.160  0.2569  0.3285 -0.0758
    1TYR    SC2  973   2.982   4.523   1.960 -0.0957  0.4161 -0.2161
    1TYR    SC3  974   3.173   4.707   2.007  0.3560 -0.0842  0.0327
    2ASP     BB  975   2.860   5.165   2.288 -0.0507 -0.0244 -0.0158
    2ASP    SC1  976   2.729   5.377   2.487 -0.0578 -0.0995  0.2282
    3TYR     BB  977   3.019   5.269   2.046  0.2161  0.0285  0.0151
    3TYR    SC1  978   2.828   5.445   1.916 -0.0389 -0.2210 -0.0577
    3TYR    SC2  979   2.642   5.543   1.746  0.1299 -0.1479 -0.2042
    3TYR    SC3  980   2.849   5.698   1.824  0.1024 -0.2106  0.0001
    1TYR     BB  981   1.877   2.264   7.034  0.2155 -0.1090  0.0219
    1TYR    SC1  982   2.046   2.345   7.259  0.2543 -0.3723 -0.1969
    1TYR    SC2  983   2.238   2.505   7.360 -0.1754  0.0932 -0.0694
    1TYR    SC3  984   2.306   2.282   7.224  0.4385  0.1149  0.1649
    2ASP     BB  985   1.754   1.915   7.152  0.0249  0.0898 -0.2072
    2ASP    SC1  986   1.461   1.998   7.191  0.1027  0.1679 -0.0239
    3TYR     BB  987   1.991   1.765   7.308  0.2847 -0.1171  0.2787
    3TYR    SC1  988   2.172   1.764   7.048 -0.0409  0.2601 -0.1126
    3TYR    SC2  989   2.361   1.666   6.881  0.1019  0.0693  0.1514
    3TYR    SC3  990   2.109   1.706   6.792  0.1636 -0.0693 -0.0959
    1TYR     BB  991   2.600   4.504   5.687 -0.0213 -0.2637 -0.3418
    1TYR    SC1  992   2.393   4.295   5.708  0.1271 -0.1400  0.3132
    1TYR    SC2  993   2.187   4.208   5.859  0.0238 -0.1523  0.1674
    1TYR    SC3  994   2.215   4.120   5.605  0.3057 -0.2821  0.2381
    2ASP     BB  995   2.712   4.431   5.990 -0.0126 -0.2073  0.0673
    2ASP    SC1  996   2.502   4.381   6.194 -0.0722 -0.1122 -0.1030
    3TYR     BB  997   2.996   4.373   6.078  0.0302  0.1019  0.2318
    3TYR    SC1  998   3.093   4.053   6.017 -0.1952 -0.1366  0.0817
    3TYR    SC2  999   3.325   3.919   5.978 -0.2488 -0.2890  0.2651
    3TYR    SC3 1000   3.092   3.813   5.892 -0.2059  0.1455 -0.4984
   7.65824   7.65824   7.65824
