Generated by trjconv : Martini system from ../2_Creating_coordinates/TYR-PHE-TYR_aa.pdb t=   0.00000
 1176
    1TYR     BB    1   1.898   4.075   3.173  0.0574 -0.3803  0.5078
    1TYR    SC1    2   2.076   4.051   3.426 -0.0763  0.1051  0.0307
    1TYR    SC2    3   2.276   4.009   3.601  0.0618  0.3259 -0.0688
    1TYR    SC3    4   2.044   4.117   3.685  0.0388  0.2098  0.0195
    2PHE     BB    5   1.698   3.829   2.968 -0.3671 -0.2547  0.1321
    2PHE    SC1    6   1.882   3.861   2.718 -0.0801  0.2984  0.0112
    2PHE    SC2    7   2.117   3.994   2.704 -0.0233  0.2153  0.1486
    2PHE    SC3    8   2.003   3.895   2.479  0.0128  0.3576  0.0662
    3TYR     BB    9   1.719   3.523   3.069  0.2271 -0.3717  0.0452
    3TYR    SC1   10   1.856   3.378   2.847 -0.2416 -0.1671 -0.0337
    3TYR    SC2   11   1.812   3.385   2.581  0.2949  0.0292 -0.1328
    3TYR    SC3   12   1.961   3.187   2.687  0.4151  0.1635 -0.0449
    1TYR     BB   13  -1.084   3.254   3.488 -0.0505 -0.0671 -0.1318
    1TYR    SC1   14  -1.262   3.152   3.218  0.1007  0.0214  0.2919
    1TYR    SC2   15  -1.196   3.255   2.977  0.1178  0.0167  0.2947
    1TYR    SC3   16  -1.406   3.088   2.998 -0.0401  0.2147  0.3240
    2PHE     BB   17  -1.119   3.507   3.466  0.1051  0.0922 -0.1290
    2PHE    SC1   18  -1.209   3.709   3.686  0.0756  0.0774 -0.0380
    2PHE    SC2   19  -1.177   3.832   3.923  0.2180 -0.1687  0.0764
    2PHE    SC3   20  -1.423   3.750   3.846  0.1241  0.1587  0.0062
    3TYR     BB   21  -0.928   3.643   3.235  0.0056 -0.2338 -0.0080
    3TYR    SC1   22  -0.734   3.377   3.117 -0.0260 -0.1496  0.0541
    3TYR    SC2   23  -0.536   3.210   3.041  0.2176 -0.0019  0.3398
    3TYR    SC3   24  -0.771   3.109   3.129  0.2324 -0.1834  0.1777
    1TYR     BB   25   5.737   3.793   5.425  0.0173 -0.0428 -0.0915
    1TYR    SC1   26   6.034   3.739   5.316  0.2029  0.2940  0.0132
    1TYR    SC2   27   6.290   3.657   5.342  0.1127 -0.1143 -0.2755
    1TYR    SC3   28   6.231   3.866   5.182  0.2507 -0.1265 -0.3443
    2PHE     BB   29   5.703   4.050   5.640 -0.0201 -0.1295 -0.0512
    2PHE    SC1   30   5.847   4.302   5.585 -0.2724 -0.0315 -0.1167
    2PHE    SC2   31   6.056   4.468   5.624  0.0355 -0.4195 -0.0179
    2PHE    SC3   32   6.006   4.369   5.378 -0.2328 -0.0911 -0.1062
    3TYR     BB   33   5.492   3.952   5.935  0.1420 -0.3191 -0.1417
    3TYR    SC1   34   5.690   3.885   6.142  0.0465 -0.1151 -0.0944
    3TYR    SC2   35   5.818   3.790   6.360  0.1285 -0.0056 -0.0941
    3TYR    SC3   36   5.941   3.967   6.196  0.0369 -0.0232 -0.1834
    1TYR     BB   37   1.788   2.342   2.948  0.0903  0.2481 -0.0426
    1TYR    SC1   38   1.868   2.074   2.874 -0.1628  0.0592  0.3348
    1TYR    SC2   39   2.022   1.857   2.910  0.3036  0.2705 -0.2048
    1TYR    SC3   40   1.816   1.849   2.735  0.0197  0.1458  0.1200
    2PHE     BB   41   1.510   2.466   3.115 -0.0819  0.0611 -0.1637
    2PHE    SC1   42   1.341   2.223   3.115  0.0975  0.4286  0.1330
    2PHE    SC2   43   1.276   2.094   3.343  0.0208  0.2941  0.0368
    2PHE    SC3   44   1.123   2.065   3.122  0.1429  0.3526 -0.0577
    3TYR     BB   45   1.454   2.633   3.371 -0.4791  0.1117 -0.1368
    3TYR    SC1   46   1.225   2.523   3.482  0.1483 -0.0215  0.1423
    3TYR    SC2   47   1.126   2.362   3.675 -0.1170 -0.1739 -0.1118
    3TYR    SC3   48   0.986   2.580   3.596 -0.0665 -0.1770 -0.2112
    1TYR     BB   49   6.302   3.816   4.631 -0.0313 -0.0840 -0.3912
    1TYR    SC1   50   6.433   4.070   4.848 -0.1432  0.1773  0.1315
    1TYR    SC2   51   6.544   4.255   5.010 -0.1475  0.2658  0.0344
    1TYR    SC3   52   6.675   4.173   4.787 -0.2813  0.3853 -0.0911
    2PHE     BB   53   6.497   3.880   4.398 -0.0455 -0.0813 -0.2948
    2PHE    SC1   54   6.349   4.003   4.129  0.0460 -0.0103  0.0510
    2PHE    SC2   55   6.226   4.228   4.043  0.1476 -0.0545 -0.2239
    2PHE    SC3   56   6.117   3.987   3.989 -0.0251 -0.0736  0.1753
    3TYR     BB   57   6.810   3.803   4.503  0.1592  0.0072 -0.0245
    3TYR    SC1   58   6.955   3.611   4.262 -0.1532  0.0106 -0.1889
    3TYR    SC2   59   7.086   3.587   4.028  0.3927 -0.2132  0.1170
    3TYR    SC3   60   6.963   3.373   4.136  0.1192 -0.1041  0.0311
    1TYR     BB   61   2.469   5.013   2.907  0.0422 -0.1727  0.1652
    1TYR    SC1   62   2.546   4.979   2.607  0.1626  0.0309  0.1703
    1TYR    SC2   63   2.464   5.122   2.394  0.3556  0.1357  0.1637
    1TYR    SC3   64   2.695   4.984   2.382  0.1585 -0.2075  0.1588
    2PHE     BB   65   2.644   4.894   3.131  0.1545 -0.1173 -0.2118
    2PHE    SC1   66   2.728   4.639   2.969  0.0586 -0.0573 -0.1456
    2PHE    SC2   67   2.701   4.534   2.721  0.0399 -0.0077 -0.1647
    2PHE    SC3   68   2.854   4.409   2.904  0.0390 -0.0543 -0.1957
    3TYR     BB   69   2.527   5.026   3.470  0.1896  0.2012 -0.1142
    3TYR    SC1   70   2.771   5.039   3.605 -0.0684 -0.1468 -0.0648
    3TYR    SC2   71   2.999   5.132   3.715 -0.1991 -0.2092  0.2752
    3TYR    SC3   72   2.890   4.902   3.805 -0.1364 -0.4531 -0.2254
    1TYR     BB   73   3.024   2.744   3.861 -0.1277  0.1781  0.0762
    1TYR    SC1   74   2.839   2.878   3.670  0.0207  0.0395  0.0790
    1TYR    SC2   75   2.692   3.088   3.584  0.2457  0.2451  0.1801
    1TYR    SC3   76   2.926   3.027   3.463  0.1075 -0.0512  0.0493
    2PHE     BB   77   2.867   2.652   4.092 -0.2974  0.2691 -0.2549
    2PHE    SC1   78   2.606   2.828   4.146  0.0958  0.1486  0.1082
    2PHE    SC2   79   2.371   2.959   4.125  0.0515  0.0515 -0.0122
    2PHE    SC3   80   2.578   3.074   4.254 -0.0872  0.1029  0.1686
    3TYR     BB   81   2.942   2.405   4.247 -0.1900 -0.2118 -0.0134
    3TYR    SC1   82   3.037   2.109   4.334  0.4884 -0.0330  0.3273
    3TYR    SC2   83   3.195   1.895   4.286  0.1869 -0.1934 -0.0165
    3TYR    SC3   84   3.009   1.883   4.481  0.3924 -0.1124  0.1906
    1TYR     BB   85   6.340   2.504   4.218  0.1321  0.1659  0.0545
    1TYR    SC1   86   6.249   2.724   4.437  0.2529 -0.2041  0.2448
    1TYR    SC2   87   6.310   2.929   4.602  0.0502 -0.1014  0.1966
    1TYR    SC3   88   6.082   2.788   4.640 -0.0875  0.0353 -0.0950
    2PHE     BB   89   6.387   2.484   3.896 -0.0673 -0.0756  0.1518
    2PHE    SC1   90   6.152   2.308   3.781  0.0139 -0.0382 -0.0916
    2PHE    SC2   91   6.034   2.334   3.540 -0.1723  0.1149  0.0114
    2PHE    SC3   92   5.894   2.234   3.749  0.0654 -0.2714  0.0011
    3TYR     BB   93   6.486   2.710   3.710  0.0241 -0.5062  0.2127
    3TYR    SC1   94   6.569   2.606   3.418  0.1225  0.3556  0.0430
    3TYR    SC2   95   6.532   2.627   3.152  0.1442  0.2662  0.0326
    3TYR    SC3   96   6.609   2.391   3.260 -0.1720  0.2126  0.1540
    1TYR     BB   97   5.635   4.536   5.142  0.2448  0.0119 -0.0633
    1TYR    SC1   98   5.464   4.738   5.021  0.0170  0.0927 -0.2516
    1TYR    SC2   99   5.286   4.940   4.999 -0.0859  0.0199 -0.1065
    1TYR    SC3  100   5.336   4.782   4.786 -0.3038 -0.0476 -0.1108
    2PHE     BB  101   5.725   4.774   5.390  0.1749  0.0307 -0.0235
    2PHE    SC1  102   6.021   4.807   5.295  0.0714 -0.1967 -0.0242
    2PHE    SC2  103   6.205   5.002   5.266 -0.1091 -0.0026  0.1020
    2PHE    SC3  104   6.283   4.751   5.328  0.1150  0.0627  0.0928
    3TYR     BB  105   5.708   4.822   5.696  0.2325  0.0152  0.2618
    3TYR    SC1  106   5.986   4.911   5.796  0.1923  0.0293 -0.0483
    3TYR    SC2  107   6.115   4.855   6.026  0.0637 -0.2269 -0.0333
    3TYR    SC3  108   6.254   4.946   5.813  0.1782  0.0521  0.1520
    1TYR     BB  109   3.282   3.774   4.592 -0.3328  0.0190  0.2071
    1TYR    SC1  110   3.146   4.010   4.702 -0.1521 -0.0168 -0.0721
    1TYR    SC2  111   3.216   4.235   4.834 -0.0783 -0.0275 -0.0931
    1TYR    SC3  112   3.050   4.250   4.621 -0.1411 -0.0026 -0.0428
    2PHE     BB  113   3.488   3.800   4.314 -0.0574  0.1998  0.0155
    2PHE    SC1  114   3.433   3.573   4.141 -0.1838  0.1006  0.0178
    2PHE    SC2  115   3.485   3.425   3.923 -0.5571  0.0981 -0.0784
    2PHE    SC3  116   3.379   3.309   4.141 -0.2900  0.1218  0.0710
    3TYR     BB  117   3.729   3.960   4.196 -0.1635  0.1890 -0.0233
    3TYR    SC1  118   3.492   4.224   4.101 -0.1100  0.1053  0.0567
    3TYR    SC2  119   3.383   4.363   3.895 -0.1298 -0.5240 -0.3922
    3TYR    SC3  120   3.237   4.313   4.117 -0.2676 -0.2109 -0.4066
    1TYR     BB  121   4.555   4.008   5.322 -0.2037 -0.1633  0.3918
    1TYR    SC1  122   4.607   3.748   5.162 -0.0598  0.1718 -0.2882
    1TYR    SC2  123   4.546   3.573   4.965  0.2280  0.1203 -0.3359
    1TYR    SC3  124   4.663   3.486   5.192  0.1619  0.2207 -0.2619
    2PHE     BB  125   4.296   4.082   5.369  0.1814 -0.0163  0.0610
    2PHE    SC1  126   4.101   4.179   5.589 -0.2341 -0.4343 -0.1640
    2PHE    SC2  127   3.947   4.145   5.808  0.0099  0.1073  0.1164
    2PHE    SC3  128   4.006   4.395   5.721  0.5241 -0.0825 -0.1273
    3TYR     BB  129   4.157   4.264   5.105  0.0719 -0.4084 -0.1676
    3TYR    SC1  130   3.905   4.389   5.210  0.1720 -0.2213  0.4619
    3TYR    SC2  131   3.646   4.429   5.144  0.2944 -0.2604 -0.1052
    3TYR    SC3  132   3.726   4.454   5.400 -0.2078  0.0576  0.0357
    1TYR     BB  133   5.705   3.569   2.922 -0.0113 -0.1718  0.3696
    1TYR    SC1  134   5.634   3.585   3.221 -0.0137  0.0369  0.0613
    1TYR    SC2  135   5.789   3.642   3.435 -0.0517  0.2416  0.0366
    1TYR    SC3  136   5.530   3.572   3.469  0.0224 -0.0285  0.0734
    2PHE     BB  137   6.056   3.666   2.995 -0.2068 -0.0566 -0.3664
    2PHE    SC1  138   6.236   3.423   2.974 -0.2545  0.0018 -0.2355
    2PHE    SC2  139   6.324   3.168   2.953  0.0512  0.0733  0.0586
    2PHE    SC3  140   6.459   3.368   2.830  0.0546  0.1373  0.1648
    3TYR     BB  141   6.098   3.959   3.195 -0.2095 -0.4258  0.0218
    3TYR    SC1  142   6.042   4.071   3.450 -0.2024 -0.1696 -0.0940
    3TYR    SC2  143   5.849   4.080   3.639 -0.0601  0.0680  0.0484
    3TYR    SC3  144   5.945   4.309   3.534 -0.1912 -0.0604 -0.3774
    1TYR     BB  145   2.535   2.491   4.546  0.1578  0.1705  0.3755
    1TYR    SC1  146   2.341   2.513   4.812  0.1557  0.1659 -0.0817
    1TYR    SC2  147   2.089   2.516   4.909  0.1733 -0.2988  0.0080
    1TYR    SC3  148   2.258   2.719   4.964 -0.1304 -0.0551  0.0738
    2PHE     BB  149   2.415   2.354   4.230  0.1408  0.0956  0.1487
    2PHE    SC1  150   2.186   2.426   4.053  0.3433 -0.0791 -0.1947
    2PHE    SC2  151   2.026   2.481   3.840  0.2512 -0.0573 -0.1209
    2PHE    SC3  152   2.082   2.673   4.022  0.3575 -0.0665 -0.1429
    3TYR     BB  153   2.558   2.118   4.162  0.0571 -0.0283 -0.3552
    3TYR    SC1  154   2.413   1.869   4.231 -0.0351 -0.1922 -0.3260
    3TYR    SC2  155   2.368   1.649   4.378  0.1054 -0.1886 -0.2763
    3TYR    SC3  156   2.185   1.728   4.196 -0.1965 -0.0475  0.0734
    1TYR     BB  157   4.655   3.719   5.755 -0.1065  0.0376 -0.1019
    1TYR    SC1  158   4.767   3.448   5.630 -0.2386 -0.2885 -0.0936
    1TYR    SC2  159   4.715   3.189   5.572 -0.2040 -0.2827 -0.1498
    1TYR    SC3  160   4.960   3.292   5.525 -0.1959 -0.2593 -0.0594
    2PHE     BB  161   4.754   4.039   5.750  0.0331 -0.3228 -0.0100
    2PHE    SC1  162   4.526   4.204   5.882  0.4185  0.3660 -0.0068
    2PHE    SC2  163   4.396   4.441   5.896 -0.1027  0.1150 -0.2704
    2PHE    SC3  164   4.296   4.223   6.020  0.1797 -0.0493 -0.3185
    3TYR     BB  165   5.028   4.091   5.722 -0.0808  0.1774  0.1367
    3TYR    SC1  166   5.152   3.913   5.502  0.0747  0.0163 -0.1838
    3TYR    SC2  167   4.962   3.789   5.355 -0.1938 -0.0891  0.2291
    3TYR    SC3  168   5.209   3.680   5.380 -0.1847 -0.1355 -0.0278
    1TYR     BB  169   1.174   5.545   1.860 -0.2258  0.3418 -0.0144
    1TYR    SC1  170   1.338   5.825   1.913 -0.2483  0.2691  0.0091
    1TYR    SC2  171   1.589   5.915   1.954 -0.1329 -0.1388  0.2765
    1TYR    SC3  172   1.395   6.086   1.874  0.2178  0.1881  0.0835
    2PHE     BB  173   1.121   5.411   2.176 -0.1734 -0.2479 -0.0094
    2PHE    SC1  174   0.835   5.227   2.140 -0.0033 -0.4144 -0.0142
    2PHE    SC2  175   0.636   5.111   2.000 -0.2479 -0.0393  0.0022
    2PHE    SC3  176   0.605   5.158   2.264 -0.1224 -0.0034  0.0116
    3TYR     BB  177   1.303   5.402   2.422  0.2023 -0.1270 -0.2370
    3TYR    SC1  178   1.586   5.594   2.395 -0.3487  0.6307 -0.1682
    3TYR    SC2  179   1.789   5.771   2.373  0.0801  0.1759 -0.1181
    3TYR    SC3  180   1.785   5.550   2.217 -0.2212  0.0219  0.0947
    1TYR     BB  181   1.929   2.709   3.384 -0.0455 -0.1201 -0.1855
    1TYR    SC1  182   2.026   2.896   3.586  0.1380 -0.2971  0.1344
    1TYR    SC2  183   2.003   3.030   3.820 -0.0289 -0.3493  0.1498
    1TYR    SC3  184   2.248   2.970   3.721  0.0581  0.1231  0.0525
    2PHE     BB  185   1.935   2.814   3.025  0.0767 -0.0012 -0.1429
    2PHE    SC1  186   1.643   2.940   2.957  0.0318  0.3586  0.2279
    2PHE    SC2  187   1.498   3.069   2.770 -0.1449  0.0894  0.1700
    2PHE    SC3  188   1.379   2.978   2.994 -0.0441 -0.0487  0.1686
    3TYR     BB  189   2.109   2.685   2.888  0.2291 -0.0713 -0.1522
    3TYR    SC1  190   2.360   2.808   2.816 -0.1402  0.1630 -0.1522
    3TYR    SC2  191   2.382   3.044   2.686  0.1241  0.1818 -0.0827
    3TYR    SC3  192   2.602   2.895   2.732 -0.0185 -0.0047  0.0130
    1TYR     BB  193   1.136   3.578   2.086  0.0789  0.0919 -0.1848
    1TYR    SC1  194   1.412   3.688   2.186 -0.1074 -0.2217  0.3678
    1TYR    SC2  195   1.667   3.599   2.186 -0.0814 -0.1609  0.0413
    1TYR    SC3  196   1.576   3.748   2.392  0.0745 -0.3723  0.2694
    2PHE     BB  197   0.963   3.463   2.360  0.0477 -0.0380  0.1301
    2PHE    SC1  198   1.189   3.431   2.591  0.1332 -0.3042 -0.1435
    2PHE    SC2  199   1.384   3.584   2.701 -0.2023 -0.0012  0.0572
    2PHE    SC3  200   1.242   3.413   2.855 -0.2241 -0.0788 -0.0471
    3TYR     BB  201   0.696   3.516   2.510  0.0390 -0.0869 -0.0107
    3TYR    SC1  202   0.630   3.845   2.504 -0.3445 -0.2200  0.1212
    3TYR    SC2  203   0.474   3.994   2.666 -0.0845  0.1122  0.0811
    3TYR    SC3  204   0.549   4.090   2.425  0.1292 -0.0632  0.0731
    1TYR     BB  205   0.930   5.431   2.739  0.0258 -0.0858 -0.0326
    1TYR    SC1  206   0.973   5.157   2.669 -0.3240  0.0688 -0.1544
    1TYR    SC2  207   0.982   4.967   2.477 -0.1171 -0.0517 -0.0295
    1TYR    SC3  208   0.979   4.896   2.738  0.1796  0.1136  0.0259
    2PHE     BB  209   0.667   5.633   2.554 -0.2195  0.0226  0.2289
    2PHE    SC1  210   0.647   5.956   2.620  0.0358 -0.1339 -0.1819
    2PHE    SC2  211   0.519   6.194   2.628  0.0468 -0.1298 -0.1220
    2PHE    SC3  212   0.779   6.182   2.557  0.1332 -0.0853  0.1672
    3TYR     BB  213   0.382   5.506   2.534  0.2502 -0.1060  0.2113
    3TYR    SC1  214   0.206   5.691   2.667  0.0837  0.1532 -0.0660
    3TYR    SC2  215   0.212   5.884   2.857 -0.1362  0.1962 -0.1006
    3TYR    SC3  216  -0.023   5.812   2.744 -0.0416 -0.0153 -0.1681
    1TYR     BB  217   3.002   3.877   4.175  0.0104 -0.0408 -0.0892
    1TYR    SC1  218   2.803   3.975   4.416  0.1183  0.1654  0.1261
    1TYR    SC2  219   2.690   3.908   4.652 -0.2399 -0.0853 -0.1037
    1TYR    SC3  220   2.584   4.105   4.502 -0.0683  0.0113 -0.1025
    2PHE     BB  221   2.827   3.755   3.925 -0.2936  0.0134 -0.1258
    2PHE    SC1  222   2.908   3.460   3.894  0.0309  0.0891 -0.2819
    2PHE    SC2  223   3.079   3.298   3.762  0.1670  0.0202 -0.0288
    2PHE    SC3  224   2.913   3.195   3.949  0.1016  0.1415 -0.0190
    3TYR     BB  225   2.710   4.008   3.803 -0.4374  0.3674 -0.0985
    3TYR    SC1  226   2.756   4.236   3.969 -0.0818 -0.1638  0.0876
    3TYR    SC2  227   2.876   4.477   3.984 -0.0697 -0.1605 -0.0460
    3TYR    SC3  228   2.726   4.388   4.190  0.1269 -0.1471  0.1073
    1TYR     BB  229   3.430   2.477   4.295 -0.0385  0.0020  0.0121
    1TYR    SC1  230   3.555   2.251   4.503 -0.0583  0.2101  0.2510
    1TYR    SC2  231   3.717   2.137   4.687 -0.0601  0.2053  0.2495
    1TYR    SC3  232   3.519   1.992   4.572 -0.2633  0.2949  0.4782
    2PHE     BB  233   3.383   2.322   3.997  0.0914  0.0588 -0.2690
    2PHE    SC1  234   3.520   2.065   4.054 -0.0942 -0.1362 -0.2287
    2PHE    SC2  235   3.579   1.807   4.106 -0.1002 -0.1233 -0.1550
    2PHE    SC3  236   3.770   1.974   4.016 -0.0537 -0.1109 -0.0348
    3TYR     BB  237   3.420   2.466   3.736  0.0270  0.2438  0.0727
    3TYR    SC1  238   3.475   2.753   3.598  0.3228 -0.1007  0.1762
    3TYR    SC2  239   3.573   2.903   3.397  0.0516 -0.2982 -0.1160
    3TYR    SC3  240   3.388   3.006   3.564  0.2377 -0.1514  0.0052
    1TYR     BB  241   0.199   4.301   3.934 -0.1632  0.1336  0.1822
    1TYR    SC1  242   0.132   4.623   3.824 -0.0002 -0.5308  0.1616
    1TYR    SC2  243   0.027   4.871   3.814  0.2667 -0.3966  0.4652
    1TYR    SC3  244  -0.037   4.690   3.625  0.2656 -0.0211  0.0859
    2PHE     BB  245   0.334   4.064   3.855  0.2831  0.1859 -0.2630
    2PHE    SC1  246   0.501   3.948   4.113 -0.2066 -0.0348  0.2436
    2PHE    SC2  247   0.713   3.835   4.237 -0.0788 -0.1557 -0.0715
    2PHE    SC3  248   0.591   4.050   4.346  0.2064 -0.0813  0.1150
    3TYR     BB  249   0.261   3.905   3.637  0.0611 -0.1311 -0.1302
    3TYR    SC1  250   0.434   3.883   3.401  0.1155 -0.1715  0.1637
    3TYR    SC2  251   0.622   3.742   3.266  0.1969 -0.1669  0.2697
    3TYR    SC3  252   0.611   4.011   3.241  0.0366 -0.1891  0.0615
    1TYR     BB  253   1.706   3.870   3.972 -0.2589 -0.1967  0.0371
    1TYR    SC1  254   1.614   3.618   4.003 -0.0042  0.0665  0.0416
    1TYR    SC2  255   1.432   3.424   4.041 -0.0147  0.0872  0.0978
    1TYR    SC3  256   1.685   3.360   3.976 -0.0573  0.0606 -0.0468
    2PHE     BB  257   1.781   4.066   4.193 -0.0896  0.0061  0.1768
    2PHE    SC1  258   1.574   4.084   4.418  0.3289  0.1580 -0.0638
    2PHE    SC2  259   1.507   3.947   4.640  0.0792  0.0376 -0.2082
    2PHE    SC3  260   1.385   4.181   4.584  0.0587  0.0108 -0.2762
    3TYR     BB  261   1.818   4.324   4.065  0.2723  0.0840 -0.0133
    3TYR    SC1  262   1.654   4.581   4.202 -0.1596 -0.1778  0.0582
    3TYR    SC2  263   1.436   4.661   4.340 -0.0084  0.2437  0.0713
    3TYR    SC3  264   1.683   4.713   4.436  0.1136 -0.3147  0.1088
    1TYR     BB  265   0.485   3.497   4.445  0.0807 -0.3251 -0.0926
    1TYR    SC1  266   0.301   3.536   4.206 -0.1885 -0.0922  0.1004
    1TYR    SC2  267   0.119   3.401   4.059  0.1105 -0.1551 -0.2327
    1TYR    SC3  268   0.072   3.657   4.132 -0.0934 -0.1582 -0.3443
    2PHE     BB  269   0.746   3.404   4.524  0.0936 -0.0991  0.1524
    2PHE    SC1  270   0.793   3.430   4.816 -0.1813  0.0733 -0.0156
    2PHE    SC2  271   0.892   3.354   5.055 -0.1329  0.1777 -0.0021
    2PHE    SC3  272   0.780   3.598   5.027 -0.0331  0.2119 -0.1141
    3TYR     BB  273   0.943   3.365   4.233  0.0829  0.1545 -0.1023
    3TYR    SC1  274   0.735   3.389   4.003  0.1057  0.3460  0.0481
    3TYR    SC2  275   0.518   3.303   3.866  0.1597  0.0924  0.1158
    3TYR    SC3  276   0.602   3.558   3.839 -0.0766  0.1615 -0.0004
    1TYR     BB  277   4.625   3.256   4.438  0.0528  0.0905  0.0967
    1TYR    SC1  278   4.330   3.197   4.284 -0.1619  0.0329 -0.0207
    1TYR    SC2  279   4.382   3.203   4.020  0.4445 -0.4171  0.0595
    1TYR    SC3  280   4.155   3.090   4.109  0.0714  0.0295 -0.2596
    2PHE     BB  281   4.655   2.923   4.477 -0.2288 -0.2328  0.0442
    2PHE    SC1  282   4.923   2.930   4.587 -0.0866 -0.2320 -0.2467
    2PHE    SC2  283   5.181   3.005   4.553 -0.0601 -0.1983 -0.0030
    2PHE    SC3  284   5.111   2.744   4.531  0.0562 -0.2524  0.2387
    3TYR     BB  285   4.430   2.789   4.538 -0.1281  0.0032 -0.0776
    3TYR    SC1  286   4.335   2.703   4.796  0.0270  0.3637  0.0699
    3TYR    SC2  287   4.091   2.596   4.849  0.1552 -0.0064 -0.0378
    3TYR    SC3  288   4.260   2.656   5.052  0.1721 -0.2469  0.0220
    1TYR     BB  289   1.061   4.774   3.971 -0.1413 -0.1174  0.0145
    1TYR    SC1  290   1.026   4.831   4.271  0.0873 -0.1739  0.1210
    1TYR    SC2  291   0.842   4.833   4.469 -0.1734  0.2332 -0.1051
    1TYR    SC3  292   1.094   4.917   4.518 -0.0950 -0.1231  0.1561
    2PHE     BB  293   1.310   4.871   3.906 -0.3289  0.0113 -0.0068
    2PHE    SC1  294   1.459   5.059   4.107  0.0124  0.1670 -0.0730
    2PHE    SC2  295   1.489   5.167   4.353  0.0428  0.0766 -0.0365
    2PHE    SC3  296   1.706   5.090   4.211  0.0278  0.1619 -0.1077
    3TYR     BB  297   1.601   4.748   3.719  0.2282 -0.1352  0.1186
    3TYR    SC1  298   1.853   4.817   3.888 -0.0189 -0.2285 -0.1476
    3TYR    SC2  299   2.036   4.830   4.086  0.1317  0.2036 -0.3010
    3TYR    SC3  300   2.105   4.897   3.834 -0.1377 -0.0336 -0.4453
    1TYR     BB  301   1.046   6.095   3.432  0.1242 -0.0175  0.0771
    1TYR    SC1  302   0.913   6.136   3.192 -0.0774  0.2522  0.0012
    1TYR    SC2  303   0.964   6.119   2.928 -0.2690 -0.0546 -0.0218
    1TYR    SC3  304   0.784   6.298   3.019 -0.1935  0.0606 -0.0953
    2PHE     BB  305   1.080   5.825   3.624  0.2462 -0.2751  0.1337
    2PHE    SC1  306   0.833   5.772   3.775  0.0507  0.0243 -0.1029
    2PHE    SC2  307   0.583   5.832   3.861  0.0926  0.0530  0.0000
    2PHE    SC3  308   0.739   5.664   4.004  0.0655 -0.1124 -0.1604
    3TYR     BB  309   1.324   5.665   3.565  0.0082 -0.0532 -0.0722
    3TYR    SC1  310   1.603   5.678   3.455 -0.0918  0.0290 -0.2085
    3TYR    SC2  311   1.705   5.677   3.206  0.0054  0.1712 -0.1701
    3TYR    SC3  312   1.843   5.565   3.409 -0.1885 -0.1773 -0.2221
    1TYR     BB  313   4.777   2.337   4.486  0.0870 -0.1185 -0.0699
    1TYR    SC1  314   4.867   2.469   4.759  0.2325 -0.1899  0.2218
    1TYR    SC2  315   4.934   2.672   4.923  0.1265 -0.1988  0.2767
    1TYR    SC3  316   4.703   2.539   4.961  0.0857 -0.1803  0.1006
    2PHE     BB  317   4.509   2.327   4.412  0.1580 -0.1192 -0.2697
    2PHE    SC1  318   4.441   2.184   4.179  0.0166 -0.1758  0.1460
    2PHE    SC2  319   4.233   2.048   4.072 -0.2553  0.1603  0.2227
    2PHE    SC3  320   4.464   2.074   3.934 -0.1786 -0.3979  0.2224
    3TYR     BB  321   4.303   2.194   4.636  0.1684 -0.0167 -0.0849
    3TYR    SC1  322   4.125   2.038   4.489  0.2964  0.0772 -0.3458
    3TYR    SC2  323   4.206   1.784   4.450 -0.1961 -0.1200 -0.1926
    3TYR    SC3  324   3.944   1.847   4.426 -0.1185  0.3290 -0.0001
    1TYR     BB  325   3.145   1.962   3.031  0.0871 -0.4485 -0.0462
    1TYR    SC1  326   2.874   1.870   2.970 -0.1025  0.2608  0.1177
    1TYR    SC2  327   2.694   1.933   2.779 -0.0200  0.0859 -0.0212
    1TYR    SC3  328   2.622   1.773   2.984  0.0090 -0.0967 -0.1495
    2PHE     BB  329   3.218   2.217   3.279  0.3747  0.2896  0.0351
    2PHE    SC1  330   3.513   2.251   3.281  0.0141  0.0642 -0.4034
    2PHE    SC2  331   3.781   2.222   3.279  0.0259  0.0629  0.0156
    2PHE    SC3  332   3.672   2.463   3.333 -0.0569  0.0246  0.0203
    3TYR     BB  333   3.092   2.551   3.360 -0.2874  0.2485 -0.1154
    3TYR    SC1  334   3.154   2.740   3.185  0.0267 -0.0457  0.0801
    3TYR    SC2  335   3.286   2.875   2.991  0.0486 -0.0392  0.0997
    3TYR    SC3  336   3.023   2.922   3.035  0.0263 -0.0915  0.0247
    1TYR     BB  337   2.678   4.532   3.504 -0.1264  0.0168 -0.0959
    1TYR    SC1  338   2.490   4.528   3.726  0.0208  0.0645  0.0482
    1TYR    SC2  339   2.443   4.641   3.967 -0.2329 -0.0038  0.0338
    1TYR    SC3  340   2.334   4.401   3.907  0.2042 -0.2095  0.0206
    2PHE     BB  341   2.631   4.310   3.354  0.1698  0.2715  0.0438
    2PHE    SC1  342   2.391   4.347   3.165  0.0115  0.2026 -0.0148
    2PHE    SC2  343   2.388   4.297   2.899 -0.4141 -0.1968  0.0485
    2PHE    SC3  344   2.223   4.483   3.004 -0.3050 -0.0978  0.0481
    3TYR     BB  345   2.738   4.041   3.345 -0.0043  0.1616  0.0900
    3TYR    SC1  346   2.827   3.921   3.111 -0.1046  0.0225 -0.0174
    3TYR    SC2  347   2.814   3.732   2.919 -0.4265 -0.1296  0.1455
    3TYR    SC3  348   2.775   3.990   2.855 -0.2066 -0.1378 -0.0416
    1TYR     BB  349   4.483   5.142   4.835 -0.0195 -0.0370  0.0698
    1TYR    SC1  350   4.231   5.280   4.902  0.2072  0.2542  0.2074
    1TYR    SC2  351   3.984   5.333   4.808  0.2012  0.0100  0.0759
    1TYR    SC3  352   4.088   5.484   5.007 -0.1248  0.0028  0.2622
    2PHE     BB  353   4.428   5.067   4.479  0.3754 -0.0853 -0.3173
    2PHE    SC1  354   4.128   4.997   4.457  0.1233 -0.3470 -0.4885
    2PHE    SC2  355   3.880   5.098   4.423  0.1039 -0.1000  0.1873
    2PHE    SC3  356   3.911   4.849   4.523  0.1051  0.0361  0.5428
    3TYR     BB  357   4.549   5.155   4.212  0.1180 -0.1307  0.2955
    3TYR    SC1  358   4.774   5.094   4.039  0.2128  0.2810  0.0393
    3TYR    SC2  359   4.932   4.879   4.078 -0.0844  0.0158 -0.1672
    3TYR    SC3  360   4.984   5.048   3.875  0.0079  0.0021 -0.1557
    1TYR     BB  361   6.849   3.023   3.504  0.0500 -0.1974  0.1171
    1TYR    SC1  362   7.020   3.089   3.735 -0.1143 -0.0374  0.1223
    1TYR    SC2  363   7.240   3.230   3.804 -0.2517  0.1776  0.1343
    1TYR    SC3  364   7.181   2.999   3.933 -0.0526  0.1346  0.1523
    2PHE     BB  365   6.737   3.158   3.232 -0.0180 -0.1515  0.0519
    2PHE    SC1  366   6.681   3.447   3.192 -0.0746 -0.0596 -0.1432
    2PHE    SC2  367   6.779   3.694   3.235 -0.1291 -0.0570 -0.0284
    2PHE    SC3  368   6.518   3.644   3.275 -0.1544 -0.0906 -0.2256
    3TYR     BB  369   6.798   2.972   2.874  0.2307  0.4584 -0.0281
    3TYR    SC1  370   6.932   2.736   3.017 -0.0655 -0.0827 -0.0849
    3TYR    SC2  371   6.955   2.607   3.253  0.1354 -0.1261 -0.1256
    3TYR    SC3  372   7.058   2.498   3.030  0.1917  0.0438 -0.1849
    1TYR     BB  373   8.114   5.035   2.015  0.0687 -0.0038  0.0545
    1TYR    SC1  374   8.278   4.884   1.810 -0.1964  0.1110 -0.0480
    1TYR    SC2  375   8.438   4.722   1.663  0.1551  0.2575  0.1541
    1TYR    SC3  376   8.177   4.751   1.598  0.2463  0.1513 -0.3017
    2PHE     BB  377   7.837   4.770   2.002 -0.1220  0.0389 -0.0738
    2PHE    SC1  378   7.950   4.497   1.895 -0.1610  0.0514 -0.5670
    2PHE    SC2  379   7.911   4.232   1.931  0.2563  0.0336 -0.0980
    2PHE    SC3  380   7.986   4.326   1.689 -0.0570 -0.2439 -0.3152
    3TYR     BB  381   7.601   4.873   2.044 -0.1399  0.0028  0.1997
    3TYR    SC1  382   7.598   5.209   2.087  0.4456 -0.0258  0.0416
    3TYR    SC2  383   7.673   5.417   1.931 -0.2502  0.2075 -0.0277
    3TYR    SC3  384   7.520   5.461   2.149 -0.0561 -0.2053  0.2068
    1TYR     BB  385   1.171   3.832   4.177 -0.2268 -0.1744  0.1486
    1TYR    SC1  386   1.135   3.738   4.469 -0.1941  0.0733 -0.0784
    1TYR    SC2  387   0.952   3.826   4.647 -0.1473 -0.1869  0.1053
    1TYR    SC3  388   1.160   3.676   4.730  0.1067  0.0301 -0.1137
    2PHE     BB  389   1.053   3.800   3.928  0.2986 -0.1488 -0.0849
    2PHE    SC1  390   1.248   3.695   3.725  0.2503 -0.2279  0.0584
    2PHE    SC2  391   1.412   3.845   3.573 -0.2221 -0.1179 -0.3787
    2PHE    SC3  392   1.438   3.576   3.576 -0.0545 -0.1045 -0.4590
    3TYR     BB  393   0.825   3.958   3.700 -0.0608 -0.1154 -0.2785
    3TYR    SC1  394   0.963   4.211   3.559  0.1224  0.1241  0.1038
    3TYR    SC2  395   0.984   4.326   3.315 -0.3959  0.0974  0.0338
    3TYR    SC3  396   0.952   4.480   3.535 -0.0868  0.1143  0.0727
    1TYR     BB  397   2.947   1.697   3.886 -0.0410 -0.3787 -0.0571
    1TYR    SC1  398   3.207   1.564   3.908  0.3656  0.1612  0.1505
    1TYR    SC2  399   3.388   1.456   3.740  0.1525 -0.2885  0.1910
    1TYR    SC3  400   3.414   1.421   4.007  0.2048 -0.0270  0.2234
    2PHE     BB  401   3.053   2.038   3.793 -0.0129  0.1354  0.1645
    2PHE    SC1  402   3.325   1.976   3.675  0.0544 -0.2419  0.0124
    2PHE    SC2  403   3.571   1.922   3.576  0.1448  0.0383  0.0731
    2PHE    SC3  404   3.354   1.798   3.474  0.2747  0.0381 -0.2131
    3TYR     BB  405   2.941   2.254   3.741 -0.1366 -0.0689 -0.4198
    3TYR    SC1  406   2.685   2.409   3.714 -0.0013  0.0559  0.0259
    3TYR    SC2  407   2.500   2.600   3.763  0.1691  0.2117  0.0795
    3TYR    SC3  408   2.422   2.349   3.699 -0.0588  0.2999 -0.0005
    1TYR     BB  409   2.548   3.568   4.308 -0.0089  0.0221 -0.1130
    1TYR    SC1  410   2.438   3.799   4.161  0.2350 -0.0444 -0.1882
    1TYR    SC2  411   2.389   4.063   4.149 -0.0004 -0.0826 -0.1154
    1TYR    SC3  412   2.227   3.889   4.021  0.1193 -0.1958 -0.1148
    2PHE     BB  413   2.381   3.449   4.580 -0.1870 -0.0726 -0.0557
    2PHE    SC1  414   2.202   3.727   4.640 -0.2806 -0.0762 -0.0615
    2PHE    SC2  415   2.146   3.939   4.481 -0.1231  0.0147  0.0006
    2PHE    SC3  416   1.980   3.874   4.684 -0.0732  0.2000  0.1031
    3TYR     BB  417   2.260   3.282   4.824  0.0065  0.1383 -0.1439
    3TYR    SC1  418   2.402   3.131   5.062  0.0338  0.4207 -0.2102
    3TYR    SC2  419   2.588   3.232   5.229  0.1869 -0.0597 -0.0722
    3TYR    SC3  420   2.554   2.964   5.210 -0.5644  0.0045 -0.0151
    1TYR     BB  421   5.668   4.452   4.633  0.2093  0.1356 -0.3587
    1TYR    SC1  422   5.954   4.357   4.524  0.0444  0.1912 -0.1028
    1TYR    SC2  423   6.207   4.267   4.496  0.1199  0.1979  0.4235
    1TYR    SC3  424   6.134   4.502   4.386  0.1482 -0.0870 -0.2733
    2PHE     BB  425   5.450   4.261   4.680  0.2769 -0.0833  0.1663
    2PHE    SC1  426   5.428   4.105   4.916 -0.1860  0.2817  0.0412
    2PHE    SC2  427   5.389   3.870   5.043 -0.1632  0.1428 -0.2000
    2PHE    SC3  428   5.446   4.093   5.185  0.2126 -0.0779  0.0112
    3TYR     BB  429   5.116   4.311   4.600  0.0882 -0.0096  0.1581
    3TYR    SC1  430   4.973   4.073   4.727 -0.0937 -0.2179  0.2304
    3TYR    SC2  431   4.930   3.907   4.935 -0.0879 -0.3808  0.1040
    3TYR    SC3  432   4.833   3.846   4.691  0.0361 -0.2679  0.0249
    1TYR     BB  433   2.730   2.145   3.297 -0.1882  0.2862 -0.1076
    1TYR    SC1  434   2.526   2.217   3.092 -0.0547  0.2787  0.1830
    1TYR    SC2  435   2.486   2.369   2.872  0.0487  0.0177 -0.0234
    1TYR    SC3  436   2.328   2.154   2.918 -0.1588  0.2329  0.3159
    2PHE     BB  437   2.740   1.891   3.446 -0.0287 -0.1963  0.1094
    2PHE    SC1  438   2.918   1.659   3.437 -0.4480 -0.2482  0.1500
    2PHE    SC2  439   2.969   1.486   3.237 -0.2106 -0.0273  0.0105
    2PHE    SC3  440   2.977   1.402   3.493  0.2968 -0.1459 -0.0320
    3TYR     BB  441   2.525   1.873   3.684 -0.3806  0.1132 -0.0060
    3TYR    SC1  442   2.453   1.622   3.817  0.0468 -0.1379  0.0677
    3TYR    SC2  443   2.514   1.466   4.030  0.2535 -0.1754 -0.0169
    3TYR    SC3  444   2.514   1.361   3.781 -0.0155 -0.1385 -0.0357
    1TYR     BB  445   6.330   3.774   2.438 -0.2597  0.1751  0.0112
    1TYR    SC1  446   6.169   3.500   2.461 -0.2577 -0.0078 -0.0165
    1TYR    SC2  447   6.114   3.260   2.351  0.1343 -0.1161  0.0033
    1TYR    SC3  448   6.060   3.304   2.612 -0.1723 -0.0890 -0.0590
    2PHE     BB  449   6.421   3.864   2.744 -0.0262 -0.0684  0.0050
    2PHE    SC1  450   6.704   3.782   2.813  0.0309  0.0005 -0.0799
    2PHE    SC2  451   6.843   3.551   2.817 -0.1231 -0.1029 -0.3655
    2PHE    SC3  452   6.973   3.786   2.789  0.0216 -0.1651 -0.2367
    3TYR     BB  453   6.288   4.131   2.772 -0.2303 -0.4325 -0.2205
    3TYR    SC1  454   6.415   4.337   2.538 -0.3648  0.1394 -0.0657
    3TYR    SC2  455   6.524   4.352   2.291 -0.0154 -0.0272  0.0708
    3TYR    SC3  456   6.360   4.548   2.378  0.1687  0.2340 -0.1495
    1TYR     BB  457   5.828   4.899   4.440 -0.3428 -0.2953  0.1584
    1TYR    SC1  458   5.522   4.849   4.346 -0.1165 -0.0730 -0.1300
    1TYR    SC2  459   5.267   4.761   4.359 -0.0211 -0.3599 -0.0991
    1TYR    SC3  460   5.394   4.769   4.121 -0.1025 -0.0709 -0.1388
    2PHE     BB  461   5.879   4.901   4.812  0.2169 -0.0268  0.0981
    2PHE    SC1  462   6.059   4.668   4.834 -0.2635 -0.1854 -0.0694
    2PHE    SC2  463   6.103   4.439   4.972 -0.1161 -0.1159  0.0019
    2PHE    SC3  464   6.309   4.603   4.911 -0.2672  0.2171  0.3349
    3TYR     BB  465   5.732   5.168   5.027 -0.0520 -0.0728  0.1240
    3TYR    SC1  466   5.511   5.318   4.837 -0.2729  0.0422  0.1707
    3TYR    SC2  467   5.470   5.229   4.586 -0.0765  0.1997  0.0805
    3TYR    SC3  468   5.315   5.426   4.686 -0.3479 -0.0617  0.1918
    1TYR     BB  469   1.072   5.398   3.308 -0.1022  0.2981  0.1051
    1TYR    SC1  470   1.260   5.534   3.128  0.3725  0.1399  0.0984
    1TYR    SC2  471   1.271   5.794   3.056  0.0311  0.1187 -0.0487
    1TYR    SC3  472   1.390   5.605   2.903  0.0777  0.1647 -0.0692
    2PHE     BB  473   0.932   5.324   3.597  0.2387 -0.0631  0.2184
    2PHE    SC1  474   0.636   5.371   3.613  0.1054  0.2028 -0.0491
    2PHE    SC2  475   0.399   5.255   3.554  0.3053 -0.0644 -0.3781
    2PHE    SC3  476   0.406   5.506   3.653 -0.1225 -0.1584 -0.0729
    3TYR     BB  477   1.040   5.265   3.847  0.0939  0.0064  0.3964
    3TYR    SC1  478   1.118   5.483   4.049 -0.0546  0.0822  0.1350
    3TYR    SC2  479   1.148   5.728   4.159  0.2443  0.1497 -0.0796
    3TYR    SC3  480   1.203   5.508   4.304  0.2359  0.2191  0.0301
    1TYR     BB  481   2.035   5.166   3.231 -0.0961 -0.4003  0.0731
    1TYR    SC1  482   2.017   5.382   2.968 -0.0264 -0.1043  0.2825
    1TYR    SC2  483   1.903   5.520   2.765 -0.0596 -0.0656  0.3270
    1TYR    SC3  484   2.168   5.463   2.758 -0.0646 -0.0827  0.2633
    2PHE     BB  485   1.692   5.049   3.336  0.1461 -0.0236 -0.1429
    2PHE    SC1  486   1.569   5.193   3.102  0.3236 -0.2864  0.0531
    2PHE    SC2  487   1.373   5.101   2.941  0.0615  0.2418  0.0451
    2PHE    SC3  488   1.604   5.192   2.835 -0.1443  0.6709 -0.0641
    3TYR     BB  489   1.449   5.172   3.549  0.2523  0.1022 -0.1850
    3TYR    SC1  490   1.595   5.317   3.771 -0.0236  0.1564 -0.1322
    3TYR    SC2  491   1.570   5.505   3.964  0.1925  0.3448 -0.2808
    3TYR    SC3  492   1.813   5.401   3.906  0.0306 -0.3232  0.1062
    1TYR     BB  493   2.966   3.346   4.407 -0.2770 -0.2463 -0.1615
    1TYR    SC1  494   3.042   3.040   4.381  0.3590  0.1985 -0.1352
    1TYR    SC2  495   3.275   2.905   4.399  0.1724 -0.1439 -0.1949
    1TYR    SC3  496   3.059   2.821   4.537  0.0719  0.1525 -0.1633
    2PHE     BB  497   2.854   3.369   4.768 -0.0659 -0.0283 -0.0147
    2PHE    SC1  498   2.809   3.090   4.825 -0.0901  0.3087 -0.1807
    2PHE    SC2  499   2.605   2.966   4.699 -0.1398  0.0823  0.1112
    2PHE    SC3  500   2.775   2.823   4.854  0.2117  0.2750 -0.0839
    3TYR     BB  501   2.972   3.527   4.986  0.0548  0.2161  0.2299
    3TYR    SC1  502   3.141   3.701   5.103  0.0759 -0.2677  0.0821
    3TYR    SC2  503   3.306   3.914   5.119 -0.3987  0.1398 -0.1135
    3TYR    SC3  504   3.189   3.819   5.342  0.2646 -0.3243  0.0739
    1TYR     BB  505   4.653   3.302   3.496  0.0327 -0.1175  0.6098
    1TYR    SC1  506   4.640   2.998   3.469 -0.0427 -0.1659  0.4353
    1TYR    SC2  507   4.735   2.759   3.391  0.0248  0.0443 -0.2050
    1TYR    SC3  508   4.506   2.854   3.285 -0.1058  0.1931  0.1846
    2PHE     BB  509   4.366   3.468   3.550  0.1165  0.0164 -0.1215
    2PHE    SC1  510   4.239   3.613   3.826  0.3764 -0.2408  0.0938
    2PHE    SC2  511   4.257   3.638   4.095  0.0392  0.0513  0.0982
    2PHE    SC3  512   4.027   3.552   3.982  0.2324 -0.2336 -0.0948
    3TYR     BB  513   4.206   3.754   3.337  0.3234 -0.0219  0.0911
    3TYR    SC1  514   4.053   3.552   3.178  0.3001 -0.1939 -0.4502
    3TYR    SC2  515   3.855   3.369   3.199 -0.2340  0.3808  0.0780
    3TYR    SC3  516   3.864   3.534   2.986 -0.1520  0.1893 -0.0720
    1TYR     BB  517   8.009   3.920   3.745  0.1128  0.2467  0.1660
    1TYR    SC1  518   8.117   3.845   3.469 -0.1167  0.0710 -0.1074
    1TYR    SC2  519   8.006   3.819   3.224  0.3004  0.0842 -0.3088
    1TYR    SC3  520   8.175   3.631   3.316  0.2193  0.1256 -0.0650
    2PHE     BB  521   7.964   3.680   3.924  0.0855 -0.0004  0.2874
    2PHE    SC1  522   8.077   3.408   4.008  0.0162 -0.1488 -0.1782
    2PHE    SC2  523   8.135   3.150   3.954  0.0456 -0.1293 -0.2398
    2PHE    SC3  524   8.102   3.230   4.209  0.0757 -0.1860 -0.2180
    3TYR     BB  525   7.594   3.599   3.996  0.0965 -0.1023  0.1455
    3TYR    SC1  526   7.473   3.867   3.965 -0.1847  0.1407 -0.0207
    3TYR    SC2  527   7.241   3.985   3.890 -0.1585  0.1335 -0.1147
    3TYR    SC3  528   7.371   4.071   4.110 -0.2189  0.1782 -0.0964
    1TYR     BB  529   5.636   2.674   3.589 -0.0507  0.0688 -0.4397
    1TYR    SC1  530   5.510   2.497   3.811  0.2158 -0.0167 -0.0648
    1TYR    SC2  531   5.457   2.383   4.048 -0.0254 -0.0674 -0.1402
    1TYR    SC3  532   5.456   2.233   3.822 -0.0934  0.0346 -0.2080
    2PHE     BB  533   5.937   2.798   3.641 -0.1255  0.1288  0.1538
    2PHE    SC1  534   6.060   2.745   3.380  0.0919 -0.1309 -0.0418
    2PHE    SC2  535   6.004   2.571   3.181  0.2468 -0.2105 -0.0170
    2PHE    SC3  536   6.121   2.806   3.124 -0.0504 -0.0680 -0.0624
    3TYR     BB  537   5.972   2.744   3.967 -0.1934 -0.1357  0.1044
    3TYR    SC1  538   5.889   2.551   4.141 -0.0066 -0.0448 -0.0389
    3TYR    SC2  539   5.830   2.484   4.396  0.1751  0.1471  0.0574
    3TYR    SC3  540   5.861   2.291   4.209 -0.2205  0.0153  0.1162
    1TYR     BB  541   4.609   4.174   4.330  0.2055 -0.1449 -0.1148
    1TYR    SC1  542   4.552   4.136   4.618 -0.0329 -0.1134 -0.0460
    1TYR    SC2  543   4.455   4.026   4.847 -0.1213 -0.0534 -0.0539
    1TYR    SC3  544   4.601   4.253   4.857 -0.1259 -0.0502 -0.0574
    2PHE     BB  545   4.456   4.094   4.106 -0.0936  0.1192 -0.0701
    2PHE    SC1  546   4.571   4.096   3.832  0.3100  0.2128  0.0584
    2PHE    SC2  547   4.591   4.216   3.592 -0.2731  0.1564 -0.0369
    2PHE    SC3  548   4.517   3.957   3.607  0.0151  0.0824  0.2019
    3TYR     BB  549   4.140   4.122   4.007 -0.2590 -0.0524  0.1720
    3TYR    SC1  550   4.139   4.281   3.734 -0.2769 -0.0198  0.0951
    3TYR    SC2  551   4.177   4.502   3.584  0.0690 -0.0107  0.1849
    3TYR    SC3  552   4.134   4.264   3.465 -0.1914  0.0815  0.0861
    1TYR     BB  553   5.390   5.209   5.385 -0.0716 -0.3519 -0.1579
    1TYR    SC1  554   5.611   5.302   5.495  0.0764  0.2262  0.1156
    1TYR    SC2  555   5.875   5.241   5.495  0.0704  0.1998  0.1038
    1TYR    SC3  556   5.793   5.490   5.561  0.0913  0.1792  0.2115
    2PHE     BB  557   5.154   4.953   5.581 -0.0012  0.0094  0.0512
    2PHE    SC1  558   4.978   4.886   5.368  0.0443  0.0626 -0.0406
    2PHE    SC2  559   4.748   5.025   5.345  0.2420  0.4034 -0.0689
    2PHE    SC3  560   4.870   4.927   5.124  0.2529  0.4408 -0.0793
    3TYR     BB  561   5.203   5.001   5.819  0.1116  0.0427  0.2061
    3TYR    SC1  562   4.998   5.043   6.055 -0.2715 -0.4169 -0.2037
    3TYR    SC2  563   4.902   4.945   6.287  0.1407 -0.3371  0.0117
    3TYR    SC3  564   4.804   5.176   6.188 -0.0242 -0.3604  0.1170
    1TYR     BB  565   7.766   4.289   3.244 -0.1822  0.1182 -0.2938
    1TYR    SC1  566   7.813   4.561   3.327  0.0626 -0.2245 -0.1347
    1TYR    SC2  567   8.021   4.729   3.358  0.0322 -0.1888 -0.1222
    1TYR    SC3  568   7.782   4.825   3.278 -0.0298 -0.2003  0.0455
    2PHE     BB  569   7.629   4.154   3.507  0.0493 -0.0510 -0.1596
    2PHE    SC1  570   7.554   3.882   3.520  0.1095  0.0614 -0.2308
    2PHE    SC2  571   7.674   3.650   3.449  0.2106  0.1130 -0.2327
    2PHE    SC3  572   7.417   3.651   3.534  0.2099  0.0010 -0.2324
    3TYR     BB  573   7.530   4.366   3.672 -0.2167 -0.1956  0.1010
    3TYR    SC1  574   7.647   4.606   3.770 -0.0561 -0.0284 -0.0633
    3TYR    SC2  575   7.642   4.774   3.981  0.2292 -0.0056 -0.0698
    3TYR    SC3  576   7.754   4.853   3.748  0.0155 -0.0697 -0.1984
    1TYR     BB  577   5.045   3.950   4.236 -0.2654  0.0454 -0.1007
    1TYR    SC1  578   4.860   3.771   4.041 -0.2894  0.1663  0.0640
    1TYR    SC2  579   4.759   3.663   3.814  0.0614 -0.0654  0.0081
    1TYR    SC3  580   4.719   3.541   4.052 -0.0773  0.0315  0.0360
    2PHE     BB  581   5.283   3.885   4.357  0.2767 -0.0669 -0.1915
    2PHE    SC1  582   5.499   4.075   4.247  0.1487  0.0008  0.0942
    2PHE    SC2  583   5.444   4.328   4.172  0.0794 -0.0724 -0.1113
    2PHE    SC3  584   5.661   4.201   4.071 -0.0259 -0.1788 -0.2071
    3TYR     BB  585   5.361   3.768   4.596 -0.1242 -0.2269 -0.0943
    3TYR    SC1  586   5.503   3.531   4.682 -0.0609 -0.2253  0.0224
    3TYR    SC2  587   5.732   3.397   4.736 -0.0387 -0.1214  0.1981
    3TYR    SC3  588   5.510   3.262   4.663  0.0275 -0.2385  0.2102
    1TYR     BB  589   8.983   3.190   3.089 -0.2077  0.0984 -0.0950
    1TYR    SC1  590   8.967   2.848   3.139  0.0777  0.0164  0.1653
    1TYR    SC2  591   8.861   2.602   3.176  0.2214 -0.0607  0.0736
    1TYR    SC3  592   9.126   2.630   3.128  0.1928  0.1062  0.0031
    2PHE     BB  593   9.208   3.286   2.942 -0.1208  0.0936  0.0377
    2PHE    SC1  594   9.279   3.569   2.916  0.1456 -0.2258  0.1250
    2PHE    SC2  595   9.472   3.752   2.871  0.1008 -0.1980  0.0417
    2PHE    SC3  596   9.309   3.779   3.084 -0.0700  0.0032 -0.1084
    3TYR     BB  597   9.370   3.090   2.766 -0.2663  0.3776 -0.5816
    3TYR    SC1  598   9.247   2.803   2.665  0.0516 -0.3393  0.0333
    3TYR    SC2  599   8.983   2.748   2.688  0.0703 -0.3524  0.2355
    3TYR    SC3  600   9.150   2.567   2.577 -0.0347 -0.2627 -0.0827
    1TYR     BB  601   3.750   2.761   5.212  0.3410  0.1082  0.1968
    1TYR    SC1  602   3.528   2.899   5.383  0.0953 -0.2028  0.3711
    1TYR    SC2  603   3.605   3.105   5.539  0.1679 -0.1165  0.2239
    1TYR    SC3  604   3.372   2.979   5.588 -0.0945  0.2751  0.0674
    2PHE     BB  605   3.843   3.084   4.965  0.1686 -0.1810 -0.1835
    2PHE    SC1  606   3.688   3.330   5.118  0.0866 -0.0791 -0.0504
    2PHE    SC2  607   3.510   3.472   5.263 -0.1360 -0.4764  0.0849
    2PHE    SC3  608   3.574   3.550   5.013 -0.2230 -0.1285  0.1643
    3TYR     BB  609   4.125   3.207   4.878 -0.2417  0.1022  0.3580
    3TYR    SC1  610   4.379   3.121   4.971 -0.1275 -0.1017 -0.0693
    3TYR    SC2  611   4.468   3.024   5.207  0.0565  0.0773 -0.0615
    3TYR    SC3  612   4.622   3.005   4.986 -0.0475  0.0542 -0.1332
    1TYR     BB  613   8.310   4.703   2.305  0.2731  0.3256 -0.1364
    1TYR    SC1  614   8.365   4.507   2.132  0.3557  0.0561  0.0116
    1TYR    SC2  615   8.360   4.237   2.133 -0.0379  0.0487 -0.3666
    1TYR    SC3  616   8.420   4.370   1.905  0.4303  0.2927 -0.1169
    2PHE     BB  617   8.506   4.981   2.354 -0.0050 -0.0170 -0.4100
    2PHE    SC1  618   8.794   4.918   2.468  0.1314  0.3431 -0.1736
    2PHE    SC2  619   9.062   4.892   2.448  0.1251  0.0805  0.0223
    2PHE    SC3  620   8.941   4.864   2.687 -0.0726  0.2663 -0.0523
    3TYR     BB  621   8.303   5.176   2.535  0.1644 -0.2145 -0.1947
    3TYR    SC1  622   8.026   5.074   2.497 -0.0748 -0.2370  0.1224
    3TYR    SC2  623   7.849   4.871   2.480 -0.2637 -0.0550 -0.2483
    3TYR    SC3  624   7.764   5.126   2.460 -0.0283  0.0719  0.1974
    1TYR     BB  625   0.433   5.338   3.029 -0.0816  0.0567  0.0759
    1TYR    SC1  626   0.605   5.564   3.098  0.1833 -0.1324 -0.1703
    1TYR    SC2  627   0.662   5.743   3.292 -0.4531  0.0061 -0.0810
    1TYR    SC3  628   0.691   5.811   3.032 -0.0691 -0.0061 -0.0478
    2PHE     BB  629   0.612   5.081   3.044  0.2186 -0.2173 -0.1412
    2PHE    SC1  630   0.551   4.964   2.788  0.4427  0.1544 -0.1549
    2PHE    SC2  631   0.376   4.954   2.584  0.3918  0.2669 -0.1177
    2PHE    SC3  632   0.585   4.784   2.590  0.2101  0.0390 -0.0937
    3TYR     BB  633   0.817   4.977   3.254  0.0444 -0.0357  0.0974
    3TYR    SC1  634   1.071   4.866   3.200  0.2368 -0.1602 -0.1099
    3TYR    SC2  635   1.288   4.731   3.289  0.3959 -0.1463 -0.4564
    3TYR    SC3  636   1.189   4.682   3.042 -0.1618 -0.3367 -0.2165
    1TYR     BB  637   4.057   4.094   4.524 -0.1922  0.3789  0.7828
    1TYR    SC1  638   4.240   3.842   4.477  0.3693 -0.1318 -0.1106
    1TYR    SC2  639   4.285   3.594   4.571 -0.1699 -0.2118 -0.0277
    1TYR    SC3  640   4.487   3.735   4.463  0.2105 -0.5689  0.1821
    2PHE     BB  641   4.079   4.389   4.500  0.0602 -0.2916 -0.2435
    2PHE    SC1  642   3.873   4.503   4.273 -0.0365  0.2950  0.0978
    2PHE    SC2  643   3.857   4.520   4.004  0.3214  0.5019  0.0812
    2PHE    SC3  644   3.669   4.637   4.158 -0.0630  0.1191 -0.0686
    3TYR     BB  645   4.263   4.542   4.610 -0.0825  0.3749 -0.1543
    3TYR    SC1  646   4.558   4.590   4.565 -0.0078 -0.4175 -0.2084
    3TYR    SC2  647   4.774   4.679   4.699 -0.2677 -0.3640  0.1986
    3TYR    SC3  648   4.778   4.667   4.429 -0.0107  0.3179  0.1461
    1TYR     BB  649   7.009   4.411   3.639  0.1865 -0.2571 -0.1742
    1TYR    SC1  650   7.066   4.513   3.932  0.1629  0.2795  0.1705
    1TYR    SC2  651   7.294   4.492   4.075  0.1042 -0.2817  0.2082
    1TYR    SC3  652   7.077   4.610   4.183  0.1588 -0.4058  0.4633
    2PHE     BB  653   6.799   4.532   3.366 -0.0628 -0.1861  0.0395
    2PHE    SC1  654   6.731   4.289   3.236  0.1694  0.0367 -0.1229
    2PHE    SC2  655   6.557   4.092   3.181 -0.0188  0.1841 -0.0702
    2PHE    SC3  656   6.783   4.117   3.035 -0.0598  0.0153 -0.1664
    3TYR     BB  657   6.621   4.751   3.375  0.0650  0.3423 -0.0931
    3TYR    SC1  658   6.686   4.914   3.671  0.2668 -0.0079 -0.1815
    3TYR    SC2  659   6.656   5.092   3.873  0.0757 -0.2316 -0.0047
    3TYR    SC3  660   6.852   4.906   3.884  0.2623 -0.0510 -0.1795
    1TYR     BB  661   8.821   3.512   2.721  0.0405  0.0775  0.0105
    1TYR    SC1  662   8.513   3.559   2.742 -0.0087  0.0530  0.0962
    1TYR    SC2  663   8.311   3.729   2.802 -0.2188 -0.0911 -0.1748
    1TYR    SC3  664   8.272   3.462   2.815  0.0121 -0.1225 -0.0579
    2PHE     BB  665   8.817   3.195   2.607 -0.0512 -0.0086  0.2149
    2PHE    SC1  666   8.818   3.020   2.335  0.1191 -0.0068  0.2367
    2PHE    SC2  667   8.771   2.865   2.119 -0.1624  0.2130  0.1301
    2PHE    SC3  668   8.920   3.088   2.093  0.0932  0.0621  0.2447
    3TYR     BB  669   8.579   3.093   2.831  0.2256 -0.1303  0.0288
    3TYR    SC1  670   8.531   2.885   2.999 -0.2218  0.0030 -0.4078
    3TYR    SC2  671   8.447   2.633   3.052 -0.2472  0.0523 -0.2019
    3TYR    SC3  672   8.420   2.826   3.239  0.1874  0.1061 -0.1823
    1TYR     BB  673   4.451   4.685   5.044 -0.2514  0.0468 -0.2108
    1TYR    SC1  674   4.201   4.792   5.034 -0.0332 -0.0989  0.2424
    1TYR    SC2  675   3.993   4.953   5.094 -0.0312 -0.0046  0.0128
    1TYR    SC3  676   3.957   4.739   4.933  0.0725  0.0887 -0.1368
    2PHE     BB  677   4.500   4.525   5.374  0.0022 -0.1029 -0.1086
    2PHE    SC1  678   4.269   4.682   5.512 -0.0851 -0.0399  0.2503
    2PHE    SC2  679   4.015   4.773   5.493  0.0813  0.4357  0.1084
    2PHE    SC3  680   4.178   4.865   5.689  0.1552  0.1456  0.1902
    3TYR     BB  681   4.743   4.527   5.553  0.2665  0.2013 -0.3736
    3TYR    SC1  682   4.677   4.751   5.764 -0.2973  0.1536  0.0792
    3TYR    SC2  683   4.597   5.006   5.795 -0.3154  0.1444  0.1095
    3TYR    SC3  684   4.570   4.831   5.999 -0.1915  0.1482  0.1299
    1TYR     BB  685   1.626   3.017   4.366 -0.2080  0.0891 -0.0893
    1TYR    SC1  686   1.641   3.263   4.491 -0.1174  0.0069  0.1823
    1TYR    SC2  687   1.792   3.464   4.585 -0.0581  0.1053 -0.1110
    1TYR    SC3  688   1.550   3.517   4.478 -0.2268 -0.0311  0.1895
    2PHE     BB  689   1.247   3.000   4.381 -0.1707  0.4670  0.2889
    2PHE    SC1  690   1.226   2.974   4.041 -0.2380  0.0796  0.0184
    2PHE    SC2  691   1.215   2.911   3.779 -0.1207  0.1500 -0.0039
    2PHE    SC3  692   1.126   3.151   3.864 -0.2797  0.0771  0.0392
    3TYR     BB  693   1.154   3.068   4.608  0.0333 -0.4232 -0.3731
    3TYR    SC1  694   1.290   3.220   4.823  0.0561 -0.3220 -0.2058
    3TYR    SC2  695   1.322   3.289   5.083 -0.3302  0.0668 -0.2444
    3TYR    SC3  696   1.474   3.405   4.892  0.0937 -0.3647 -0.1921
    1TYR     BB  697   8.595   3.878   3.651 -0.0731  0.2432 -0.0989
    1TYR    SC1  698   8.474   3.912   3.954  0.0103  0.3717 -0.2515
    1TYR    SC2  699   8.288   4.072   4.067  0.2143  0.4041  0.0540
    1TYR    SC3  700   8.520   4.024   4.196  0.2975  0.1274 -0.1858
    2PHE     BB  701   8.493   4.246   3.623 -0.2188  0.1693 -0.1953
    2PHE    SC1  702   8.531   4.402   3.899  0.1837 -0.2230 -0.0511
    2PHE    SC2  703   8.720   4.557   4.015 -0.0276 -0.0247  0.0374
    2PHE    SC3  704   8.479   4.527   4.132 -0.1237 -0.1077 -0.1744
    3TYR     BB  705   8.219   4.328   3.519  0.0232  0.1363  0.1239
    3TYR    SC1  706   8.084   4.506   3.738  0.0084  0.0807 -0.0230
    3TYR    SC2  707   8.121   4.723   3.895 -0.2099 -0.0063  0.1552
    3TYR    SC3  708   8.047   4.488   4.005  0.2042 -0.2276 -0.0104
    1TYR     BB  709   0.455   5.926   2.150 -0.0803  0.1596  0.0203
    1TYR    SC1  710   0.457   6.224   2.149  0.3033 -0.0208  0.2660
    1TYR    SC2  711   0.380   6.448   2.279  0.1117  0.1003 -0.0408
    1TYR    SC3  712   0.602   6.451   2.124 -0.0893  0.1960 -0.3377
    2PHE     BB  713   0.687   5.724   2.065  0.1634  0.1140 -0.1160
    2PHE    SC1  714   0.626   5.549   1.841 -0.1985  0.0178 -0.2141
    2PHE    SC2  715   0.577   5.367   1.647 -0.3215  0.1313 -0.2925
    2PHE    SC3  716   0.727   5.585   1.594  0.0332 -0.0633 -0.1334
    3TYR     BB  717   0.940   5.992   2.115  0.1340 -0.1063  0.4542
    3TYR    SC1  718   1.116   5.929   2.311 -0.4886  0.3014  0.3193
    3TYR    SC2  719   1.123   5.887   2.578 -0.0416  0.2769  0.3125
    3TYR    SC3  720   1.351   5.947   2.444 -0.1835 -0.0944 -0.1253
    1TYR     BB  721   6.507   4.055   3.632 -0.1341 -0.1392 -0.2174
    1TYR    SC1  722   6.425   4.328   3.644  0.1679 -0.0441 -0.1131
    1TYR    SC2  723   6.294   4.552   3.716  0.3543  0.0331 -0.0056
    1TYR    SC3  724   6.546   4.510   3.802  0.1723 -0.4283  0.3550
    2PHE     BB  725   6.756   3.992   3.803 -0.2283  0.2118 -0.2226
    2PHE    SC1  726   6.845   3.723   3.696  0.2276  0.1019 -0.2126
    2PHE    SC2  727   6.707   3.491   3.688  0.0270  0.2070  0.0266
    2PHE    SC3  728   6.951   3.508   3.573 -0.1916  0.0444 -0.4969
    3TYR     BB  729   6.833   4.059   4.063  0.2105 -0.0154 -0.2790
    3TYR    SC1  730   6.678   4.317   4.183 -0.0129 -0.0416 -0.1737
    3TYR    SC2  731   6.621   4.578   4.219 -0.1348 -0.1072  0.1498
    3TYR    SC3  732   6.647   4.416   4.433  0.2605 -0.2966 -0.0312
    1TYR     BB  733   4.286   2.365   2.691 -0.0396  0.0109 -0.0530
    1TYR    SC1  734   4.312   2.197   2.923 -0.1739  0.2329  0.0291
    1TYR    SC2  735   4.435   2.003   3.066 -0.0854 -0.0159 -0.3653
    1TYR    SC3  736   4.266   2.174   3.188  0.1458 -0.0794  0.0679
    2PHE     BB  737   4.385   2.729   2.766 -0.2133  0.2346  0.0392
    2PHE    SC1  738   4.194   2.717   3.016 -0.2511 -0.1247 -0.2546
    2PHE    SC2  739   3.987   2.545   3.025 -0.1911 -0.1910 -0.1511
    2PHE    SC3  740   4.094   2.640   3.254  0.0219 -0.3128 -0.1961
    3TYR     BB  741   4.587   2.926   2.750  0.0815 -0.2520 -0.3536
    3TYR    SC1  742   4.834   2.931   2.946 -0.0711  0.0570  0.3676
    3TYR    SC2  743   5.051   2.841   3.078  0.2359  0.0403 -0.1223
    3TYR    SC3  744   4.955   3.089   3.129  0.4367  0.0903  0.0282
    1TYR     BB  745   4.075   3.760   4.970  0.1958  0.2498  0.1538
    1TYR    SC1  746   4.148   3.580   5.207 -0.0065 -0.2429 -0.0997
    1TYR    SC2  747   4.008   3.475   5.414  0.0298  0.3619  0.2617
    1TYR    SC3  748   4.278   3.477   5.420  0.0348  0.2291  0.1224
    2PHE     BB  749   3.809   3.967   4.992 -0.1350 -0.2115 -0.0393
    2PHE    SC1  750   3.739   3.955   5.296  0.3646  0.1610  0.2440
    2PHE    SC2  751   3.559   3.999   5.493 -0.1209 -0.0657 -0.1212
    2PHE    SC3  752   3.771   3.838   5.537 -0.0536  0.1192  0.2914
    3TYR     BB  753   3.657   4.002   4.770 -0.1124  0.0767 -0.0677
    3TYR    SC1  754   3.601   4.258   4.631 -0.2141  0.0168  0.1484
    3TYR    SC2  755   3.467   4.447   4.494 -0.0349 -0.0553 -0.1357
    3TYR    SC3  756   3.619   4.516   4.705  0.1568  0.1485 -0.3325
    1TYR     BB  757   4.507   2.681   4.076 -0.1096  0.2070  0.0551
    1TYR    SC1  758   4.783   2.600   4.022  0.0192  0.1850  0.0118
    1TYR    SC2  759   5.043   2.577   4.088 -0.0252 -0.2765  0.0712
    1TYR    SC3  760   4.974   2.666   3.844  0.1916 -0.2693  0.0095
    2PHE     BB  761   4.390   2.760   3.796 -0.3030  0.0536  0.0856
    2PHE    SC1  762   4.219   2.949   3.648  0.0352 -0.6297 -0.3995
    2PHE    SC2  763   4.089   3.048   3.433 -0.3339 -0.1590  0.0104
    2PHE    SC3  764   3.964   2.876   3.598 -0.2203 -0.1577  0.0993
    3TYR     BB  765   4.403   2.497   3.618 -0.0446  0.1542 -0.2040
    3TYR    SC1  766   4.664   2.337   3.659  0.0571  0.2206  0.0212
    3TYR    SC2  767   4.880   2.212   3.759 -0.1842 -0.0935  0.1686
    3TYR    SC3  768   4.739   2.099   3.559  0.0409  0.3234 -0.2480
    1TYR     BB  769   4.680   3.686   3.180 -0.0281 -0.3756  0.1367
    1TYR    SC1  770   4.855   3.873   2.974  0.1367 -0.2442 -0.3357
    1TYR    SC2  771   5.034   4.047   2.870  0.1237 -0.0257 -0.0098
    1TYR    SC3  772   4.868   3.911   2.707  0.1154  0.2877 -0.2738
    2PHE     BB  773   4.537   3.408   2.983 -0.3358 -0.1019  0.0012
    2PHE    SC1  774   4.781   3.387   2.810 -0.2459  0.1901  0.1985
    2PHE    SC2  775   5.035   3.478   2.805 -0.1096 -0.1720 -0.0996
    2PHE    SC3  776   4.884   3.489   2.582 -0.2219 -0.3099 -0.0324
    3TYR     BB  777   4.278   3.203   2.993 -0.1157 -0.0677  0.0310
    3TYR    SC1  778   4.193   3.351   2.707  0.0762  0.2297  0.1649
    3TYR    SC2  779   3.996   3.222   2.574  0.0554  0.2870  0.1395
    3TYR    SC3  780   4.044   3.483   2.525  0.2500  0.2326  0.0207
    1TYR     BB  781   7.067   4.476   2.910 -0.2238  0.0959 -0.2343
    1TYR    SC1  782   7.057   4.249   2.685  0.2278 -0.0424 -0.1975
    1TYR    SC2  783   7.092   4.068   2.486  0.1251 -0.1844 -0.0887
    1TYR    SC3  784   6.845   4.159   2.544  0.2071  0.2435 -0.3578
    2PHE     BB  785   7.268   4.455   3.158 -0.4524 -0.0946 -0.0880
    2PHE    SC1  786   7.181   4.160   3.260  0.4189 -0.2018  0.2888
    2PHE    SC2  787   7.077   3.977   3.429 -0.3145 -0.1812 -0.0900
    2PHE    SC3  788   7.147   3.905   3.178  0.4785 -0.1481  0.0882
    3TYR     BB  789   7.298   4.697   3.271 -0.3648 -0.4012  0.0829
    3TYR    SC1  790   7.393   4.865   3.509  0.2536  0.0661 -0.1541
    3TYR    SC2  791   7.307   4.957   3.748 -0.1706 -0.0841 -0.2386
    3TYR    SC3  792   7.418   5.127   3.570 -0.2408  0.1124 -0.0991
    1TYR     BB  793   6.197   3.653   3.618 -0.0108 -0.0348  0.0172
    1TYR    SC1  794   6.347   3.605   3.873  0.2060  0.0734 -0.3505
    1TYR    SC2  795   6.538   3.582   4.062  0.0279  0.1137 -0.1612
    1TYR    SC3  796   6.279   3.539   4.126 -0.0404  0.1746 -0.3861
    2PHE     BB  797   6.210   3.369   3.460  0.3760  0.2239 -0.1610
    2PHE    SC1  798   5.955   3.283   3.311  0.0121  0.1005 -0.0035
    2PHE    SC2  799   5.730   3.144   3.364 -0.0241  0.0960 -0.1648
    2PHE    SC3  800   5.832   3.147   3.113  0.1676  0.0811 -0.0891
    3TYR     BB  801   6.351   3.172   3.542  0.0415 -0.1604  0.0703
    3TYR    SC1  802   6.378   3.156   3.887  0.1142  0.0735  0.2192
    3TYR    SC2  803   6.597   3.102   4.035  0.1034 -0.1463  0.1615
    3TYR    SC3  804   6.351   3.047   4.132  0.0773  0.0133  0.1892
    1TYR     BB  805   4.935   5.384   5.047  0.2550 -0.0589  0.0595
    1TYR    SC1  806   4.926   5.250   4.794 -0.0189  0.0355  0.3516
    1TYR    SC2  807   4.884   5.254   4.528 -0.2394  0.2434  0.3846
    1TYR    SC3  808   5.038   5.061   4.637  0.1420  0.3515  0.0692
    2PHE     BB  809   4.664   5.528   5.147  0.1366 -0.1423  0.0043
    2PHE    SC1  810   4.434   5.401   5.288 -0.4586  0.0592  0.0006
    2PHE    SC2  811   4.350   5.157   5.369  0.0160 -0.1380 -0.0611
    2PHE    SC3  812   4.357   5.362   5.544 -0.1903 -0.2198  0.0472
    3TYR     BB  813   4.773   5.814   5.330 -0.1606 -0.0829 -0.2641
    3TYR    SC1  814   4.542   5.851   5.515  0.0555 -0.0285  0.0735
    3TYR    SC2  815   4.284   5.798   5.577  0.0488  0.0099  0.0785
    3TYR    SC3  816   4.409   6.011   5.688  0.1599 -0.1517  0.2724
    1TYR     BB  817   3.114   4.725   3.384  0.1313  0.4139  0.0502
    1TYR    SC1  818   3.394   4.812   3.294  0.0852 -0.3915  0.0742
    1TYR    SC2  819   3.633   4.776   3.176 -0.0056  0.1059 -0.3053
    1TYR    SC3  820   3.533   5.025   3.204 -0.1879 -0.0228  0.4725
    2PHE     BB  821   3.153   4.376   3.352  0.3371  0.1839 -0.0380
    2PHE    SC1  822   3.294   4.321   3.101 -0.1215  0.1615  0.1044
    2PHE    SC2  823   3.301   4.465   2.873 -0.1296 -0.0143 -0.0088
    2PHE    SC3  824   3.350   4.200   2.867  0.0819  0.0146  0.2252
    3TYR     BB  825   3.082   4.259   3.586  0.1700  0.1709  0.1200
    3TYR    SC1  826   3.177   3.973   3.669  0.0068  0.1421  0.1225
    3TYR    SC2  827   3.365   3.835   3.805 -0.1922 -0.2998 -0.0245
    3TYR    SC3  828   3.238   3.720   3.596 -0.1391  0.2350 -0.3772
    1TYR     BB  829  -2.041   2.911   4.101 -0.0812  0.5261  0.1244
    1TYR    SC1  830  -1.977   3.107   4.365 -0.0721  0.2811 -0.1774
    1TYR    SC2  831  -1.839   3.321   4.452 -0.3997  0.3187  0.3026
    1TYR    SC3  832  -1.984   3.176   4.626 -0.4322 -0.1183 -0.0666
    2PHE     BB  833  -1.710   2.821   3.989 -0.0180  0.0481  0.1406
    2PHE    SC1  834  -1.584   3.075   3.948  0.2639 -0.1713 -0.0139
    2PHE    SC2  835  -1.553   3.304   4.087 -0.2017 -0.0535 -0.0838
    2PHE    SC3  836  -1.499   3.298   3.823 -0.2169 -0.0152 -0.0879
    3TYR     BB  837  -1.531   2.522   3.912  0.0837  0.1176  0.1050
    3TYR    SC1  838  -1.730   2.356   4.047  0.3260  0.1294  0.1673
    3TYR    SC2  839  -1.849   2.244   4.262  0.0986  0.3851  0.1814
    3TYR    SC3  840  -1.975   2.244   4.023  0.1293  0.5381  0.1641
    1TYR     BB  841   7.720   3.216   3.701  0.1669 -0.0207  0.2921
    1TYR    SC1  842   7.677   2.950   3.884  0.0763  0.4863  0.2901
    1TYR    SC2  843   7.729   2.899   4.145 -0.0041 -0.1209  0.2038
    1TYR    SC3  844   7.822   2.733   3.953 -0.4535 -0.0305 -0.1118
    2PHE     BB  845   7.519   3.170   3.430 -0.2611 -0.2286  0.0660
    2PHE    SC1  846   7.709   3.245   3.210 -0.1998 -0.0005 -0.3856
    2PHE    SC2  847   7.979   3.249   3.222 -0.2100  0.0584  0.3147
    2PHE    SC3  848   7.848   3.437   3.078  0.1137  0.1599  0.1403
    3TYR     BB  849   7.317   2.939   3.371  0.0130  0.0619 -0.1760
    3TYR    SC1  850   7.325   2.711   3.555  0.1798  0.1402  0.4100
    3TYR    SC2  851   7.249   2.455   3.595  0.3697  0.0205  0.0618
    3TYR    SC3  852   7.405   2.580   3.776  0.1846 -0.0677  0.2885
    1TYR     BB  853   2.103   2.234   3.333  0.3896 -0.2226  0.0422
    1TYR    SC1  854   2.198   1.943   3.346  0.1487 -0.0334 -0.2645
    1TYR    SC2  855   2.115   1.709   3.452  0.1408 -0.0432 -0.2923
    1TYR    SC3  856   2.297   1.710   3.252  0.1374 -0.0258 -0.2953
    2PHE     BB  857   1.754   2.182   3.445  0.0276 -0.1150  0.1287
    2PHE    SC1  858   1.738   1.906   3.342 -0.0047  0.0474 -0.0396
    2PHE    SC2  859   1.560   1.823   3.157 -0.2730 -0.2119  0.3193
    2PHE    SC3  860   1.746   1.652   3.251 -0.0354 -0.0354  0.1819
    3TYR     BB  861   1.590   2.243   3.726  0.0356  0.1546  0.0478
    3TYR    SC1  862   1.561   2.468   3.903  0.1625 -0.0206 -0.3133
    3TYR    SC2  863   1.559   2.658   4.094  0.1192 -0.1959 -0.1357
    3TYR    SC3  864   1.587   2.728   3.836 -0.1621  0.0757 -0.1000
    1TYR     BB  865   1.962   4.859   2.851  0.2350 -0.0539 -0.0912
    1TYR    SC1  866   1.923   5.002   2.595  0.2553  0.0318 -0.0710
    1TYR    SC2  867   1.845   5.203   2.431  0.1790  0.0013 -0.0728
    1TYR    SC3  868   2.039   5.032   2.353  0.0793 -0.0695 -0.1721
    2PHE     BB  869   1.708   4.696   2.966  0.1470 -0.1014  0.0874
    2PHE    SC1  870   1.473   4.743   2.730 -0.3692 -0.0445  0.0946
    2PHE    SC2  871   1.311   4.695   2.519  0.0066  0.2255 -0.2747
    2PHE    SC3  872   1.466   4.916   2.523 -0.0820  0.2983  0.3577
    3TYR     BB  873   1.716   4.524   3.174  0.0299 -0.1213  0.2523
    3TYR    SC1  874   1.945   4.620   3.339 -0.0788 -0.0413  0.1079
    3TYR    SC2  875   2.031   4.523   3.575  0.2732  0.0881  0.0400
    3TYR    SC3  876   2.203   4.650   3.410  0.0667 -0.1147 -0.3474
    1TYR     BB  877   0.939   4.420   2.646 -0.2137  0.2167 -0.2552
    1TYR    SC1  878   0.828   4.432   2.356 -0.1967 -0.2478  0.0021
    1TYR    SC2  879   0.787   4.598   2.147  0.0202 -0.2328 -0.0315
    1TYR    SC3  880   0.771   4.330   2.112 -0.2040 -0.2250 -0.0057
    2PHE     BB  881   0.820   4.291   2.844 -0.1667  0.0875  0.0563
    2PHE    SC1  882   0.879   4.012   2.854 -0.3508 -0.1828 -0.1386
    2PHE    SC2  883   0.930   3.752   2.907  0.2423  0.0079  0.3884
    2PHE    SC3  884   1.079   3.884   2.725 -0.1290 -0.0278  0.0408
    3TYR     BB  885   0.627   4.533   3.046 -0.2556 -0.0499 -0.0428
    3TYR    SC1  886   0.364   4.511   2.874  0.0772 -0.2112  0.0231
    3TYR    SC2  887   0.275   4.353   2.673 -0.0350 -0.2424  0.0961
    3TYR    SC3  888   0.107   4.529   2.791  0.0300 -0.2246  0.1631
    1TYR     BB  889   2.077   2.880   4.531 -0.0321  0.1377  0.0982
    1TYR    SC1  890   1.908   2.959   4.743 -0.3398  0.1997 -0.1674
    1TYR    SC2  891   1.783   2.826   4.943 -0.0130  0.2481  0.0809
    1TYR    SC3  892   1.768   3.096   4.929 -0.2216  0.2309 -0.0997
    2PHE     BB  893   1.880   2.583   4.463  0.0324  0.2765 -0.1347
    2PHE    SC1  894   2.000   2.326   4.484 -0.3029  0.2364  0.0106
    2PHE    SC2  895   1.999   2.162   4.699 -0.1129  0.0219 -0.1464
    2PHE    SC3  896   2.074   2.067   4.457 -0.0786  0.3226 -0.2588
    3TYR     BB  897   1.601   2.597   4.574  0.0088  0.0587  0.2980
    3TYR    SC1  898   1.629   2.414   4.822  0.1212 -0.0953  0.0179
    3TYR    SC2  899   1.562   2.182   4.943 -0.1905 -0.0617 -0.0816
    3TYR    SC3  900   1.535   2.417   5.076  0.1254 -0.0771  0.0193
    1TYR     BB  901  -2.348   2.499   4.273 -0.2792  0.1715  0.3480
    1TYR    SC1  902  -2.421   2.739   4.434 -0.1568 -0.1290  0.2575
    1TYR    SC2  903  -2.464   3.004   4.405  0.2194 -0.1033 -0.2326
    1TYR    SC3  904  -2.339   2.910   4.626  0.0428  0.1166 -0.0334
    2PHE     BB  905  -2.358   2.204   4.483 -0.1990 -0.0719  0.3589
    2PHE    SC1  906  -2.225   1.973   4.327  0.4025 -0.2600  0.4185
    2PHE    SC2  907  -2.177   1.890   4.075  0.4672  0.1507  0.2871
    2PHE    SC3  908  -2.273   1.716   4.258  0.0259 -0.0665 -0.1248
    3TYR     BB  909  -2.105   2.224   4.698 -0.1059  0.1860 -0.0108
    3TYR    SC1  910  -1.943   2.470   4.652  0.0415 -0.0299  0.0841
    3TYR    SC2  911  -1.883   2.654   4.464  0.4291 -0.1355  0.0923
    3TYR    SC3  912  -1.928   2.732   4.718  0.4639 -0.0420  0.0705
    1TYR     BB  913   3.365   3.242   4.687 -0.0511 -0.1576  0.0462
    1TYR    SC1  914   3.634   3.353   4.568 -0.2289  0.2555 -0.1679
    1TYR    SC2  915   3.829   3.354   4.381  0.0026  0.2009  0.0644
    1TYR    SC3  916   3.808   3.560   4.556  0.0733  0.0481  0.2572
    2PHE     BB  917   3.374   2.941   4.903 -0.0092 -0.1843 -0.0409
    2PHE    SC1  918   3.221   3.098   5.118  0.0243  0.0638  0.0321
    2PHE    SC2  919   2.986   3.028   5.230 -0.0763  0.0763 -0.1653
    2PHE    SC3  920   3.134   3.227   5.339 -0.1951  0.1231 -0.0855
    3TYR     BB  921   3.429   2.635   4.787  0.2616 -0.0965  0.0779
    3TYR    SC1  922   3.241   2.430   4.795 -0.2988  0.2097  0.1707
    3TYR    SC2  923   2.989   2.339   4.768 -0.1272 -0.2231 -0.1062
    3TYR    SC3  924   3.194   2.166   4.787  0.1610  0.1200  0.0755
    1TYR     BB  925   4.318   4.628   4.082 -0.2748  0.2889 -0.1026
    1TYR    SC1  926   4.143   4.901   4.035  0.4314  0.2577  0.2316
    1TYR    SC2  927   3.885   4.967   3.989  0.3390 -0.0415  0.2912
    1TYR    SC3  928   4.074   5.160   4.005  0.1364  0.1743  0.1533
    2PHE     BB  929   4.562   4.628   3.883  0.1072 -0.2256 -0.1602
    2PHE    SC1  930   4.802   4.488   3.980  0.2447  0.5133 -0.0581
    2PHE    SC2  931   5.032   4.446   4.114  0.2396  0.0430 -0.1743
    2PHE    SC3  932   4.963   4.283   3.911 -0.2781  0.0656 -0.0346
    3TYR     BB  933   4.530   4.885   3.667  0.1917 -0.3055 -0.1625
    3TYR    SC1  934   4.216   4.919   3.558 -0.0821 -0.1985 -0.0855
    3TYR    SC2  935   4.069   5.137   3.499  0.0990 -0.0562 -0.0252
    3TYR    SC3  936   3.951   4.894   3.513 -0.1761  0.0838  0.2565
    1TYR     BB  937   0.461   4.420   3.506  0.2587  0.3378 -0.0425
    1TYR    SC1  938   0.232   4.341   3.334  0.1837  0.1730 -0.2666
    1TYR    SC2  939  -0.004   4.383   3.211  0.0106  0.2708  0.0820
    1TYR    SC3  940   0.153   4.178   3.135 -0.2198  0.1585 -0.1076
    2PHE     BB  941   0.470   4.760   3.535 -0.2192 -0.1745 -0.1329
    2PHE    SC1  942   0.259   4.827   3.330  0.0699  0.2846  0.0740
    2PHE    SC2  943   0.076   5.017   3.277 -0.2015  0.0219  0.0359
    2PHE    SC3  944   0.200   4.889   3.074  0.2162  0.3648  0.0585
    3TYR     BB  945   0.635   4.852   3.735 -0.0595 -0.0842  0.4356
    3TYR    SC1  946   0.555   5.069   3.935 -0.3142  0.1472 -0.0697
    3TYR    SC2  947   0.386   5.257   4.030 -0.0855  0.2625  0.1194
    3TYR    SC3  948   0.650   5.271   4.085  0.0072  0.1434 -0.2573
    1TYR     BB  949  -0.600   3.579   3.571  0.1549 -0.4073  0.0186
    1TYR    SC1  950  -0.704   3.871   3.649  0.0888  0.0048 -0.1106
    1TYR    SC2  951  -0.789   4.093   3.779  0.0489 -0.0249 -0.0853
    1TYR    SC3  952  -0.841   4.062   3.516  0.1878  0.0663 -0.1251
    2PHE     BB  953  -0.646   3.419   3.842  0.0348 -0.2099 -0.0642
    2PHE    SC1  954  -0.885   3.418   3.969  0.1234 -0.0718  0.0109
    2PHE    SC2  955  -1.134   3.387   4.068  0.0817  0.1681 -0.0127
    2PHE    SC3  956  -0.927   3.428   4.236  0.1107 -0.0499  0.0081
    3TYR     BB  957  -0.361   3.301   3.969 -0.0344 -0.1315 -0.1530
    3TYR    SC1  958  -0.313   3.488   4.225 -0.0591 -0.1817 -0.1602
    3TYR    SC2  959  -0.492   3.501   4.425  0.0175 -0.1331 -0.0943
    3TYR    SC3  960  -0.293   3.684   4.409  0.1819 -0.3047 -0.0496
    1TYR     BB  961  -1.173   2.762   4.129 -0.0548 -0.2707 -0.3987
    1TYR    SC1  962  -1.284   2.954   4.263  0.1278  0.0039  0.0386
    1TYR    SC2  963  -1.490   3.003   4.431  0.2038 -0.0149  0.1376
    1TYR    SC3  964  -1.261   3.146   4.451  0.2791 -0.1385  0.1687
    2PHE     BB  965  -1.154   2.843   3.845  0.0040  0.1377  0.0960
    2PHE    SC1  966  -1.330   2.817   3.619  0.1619  0.1161 -0.0765
    2PHE    SC2  967  -1.563   2.905   3.515  0.0095 -0.2761 -0.0863
    2PHE    SC3  968  -1.459   2.670   3.433  0.4377 -0.0871 -0.1140
    3TYR     BB  969  -0.789   2.885   3.856 -0.1180 -0.1965  0.1175
    3TYR    SC1  970  -0.690   2.962   3.609  0.2060 -0.0978 -0.0851
    3TYR    SC2  971  -0.536   2.841   3.423  0.2739 -0.0670 -0.0490
    3TYR    SC3  972  -0.465   3.083   3.521  0.2034 -0.0534 -0.0314
    1TYR     BB  973   7.322   4.591   2.301  0.0548  0.0603 -0.3463
    1TYR    SC1  974   7.083   4.397   2.177 -0.2227  0.0562 -0.1613
    1TYR    SC2  975   7.008   4.174   2.044 -0.0244  0.0983 -0.3507
    1TYR    SC3  976   6.852   4.394   2.038 -0.3194 -0.0900 -0.0014
    2PHE     BB  977   7.551   4.411   2.313 -0.1456  0.1387  0.2884
    2PHE    SC1  978   7.505   4.095   2.333  0.0703  0.0034  0.1670
    2PHE    SC2  979   7.384   3.892   2.203  0.0194  0.0208  0.1873
    2PHE    SC3  980   7.612   3.847   2.340  0.0196 -0.0184  0.1740
    3TYR     BB  981   7.912   4.415   2.394 -0.0862 -0.1353 -0.1842
    3TYR    SC1  982   8.001   4.133   2.355  0.0242 -0.0387 -0.0967
    3TYR    SC2  983   8.199   3.969   2.437  0.2648  0.2022 -0.1814
    3TYR    SC3  984   8.036   3.893   2.236  0.1732 -0.0594 -0.0135
    1TYR     BB  985  -0.266   3.866   3.861 -0.1716  0.0503  0.0016
    1TYR    SC1  986  -0.507   3.945   4.046 -0.1197  0.2430 -0.1946
    1TYR    SC2  987  -0.677   4.059   4.222 -0.1195  0.0099 -0.0396
    1TYR    SC3  988  -0.732   3.815   4.121 -0.1021  0.1259 -0.3397
    2PHE     BB  989  -0.198   4.163   3.642 -0.1263  0.1440 -0.0525
    2PHE    SC1  990  -0.301   4.379   3.812  0.0583 -0.1358  0.0432
    2PHE    SC2  991  -0.266   4.552   4.015  0.0831  0.0062 -0.0807
    2PHE    SC3  992  -0.510   4.448   3.969  0.1241 -0.2115  0.1659
    3TYR     BB  993  -0.213   3.987   3.401  0.2950 -0.0711 -0.0582
    3TYR    SC1  994  -0.357   3.851   3.174 -0.1010 -0.1199  0.1352
    3TYR    SC2  995  -0.344   3.619   3.037 -0.1710 -0.0990  0.0929
    3TYR    SC3  996  -0.527   3.806   2.969  0.0247  0.0600 -0.0131
    1TYR     BB  997   2.788   3.568   3.455 -0.1122  0.3507  0.0480
    1TYR    SC1  998   3.036   3.448   3.295 -0.0632  0.3962 -0.1730
    1TYR    SC2  999   3.152   3.417   3.052 -0.1568  0.2665 -0.2019
    1TYR    SC3 1000   3.238   3.271   3.263 -0.2337  0.2041 -0.2127
    2PHE     BB 1001   2.526   3.549   3.521 -0.1073  0.2158  0.2617
    2PHE    SC1 1002   2.370   3.712   3.288  0.4351  0.1331 -0.2093
    2PHE    SC2 1003   2.168   3.711   3.108  0.2295  0.1520  0.0126
    2PHE    SC3 1004   2.380   3.875   3.073  0.2107  0.1308 -0.2247
    3TYR     BB 1005   2.423   3.422   3.845  0.0020  0.2088 -0.2313
    3TYR    SC1 1006   2.170   3.425   4.040 -0.1243 -0.1341 -0.0921
    3TYR    SC2 1007   2.073   3.280   4.246  0.0397 -0.0914  0.0173
    3TYR    SC3 1008   2.020   3.545   4.231 -0.2529 -0.1549 -0.1781
    1TYR     BB 1009   1.804   4.341   2.617  0.0854 -0.5372  0.1696
    1TYR    SC1 1010   1.767   4.574   2.423 -0.0926 -0.0053  0.0040
    1TYR    SC2 1011   1.890   4.678   2.206 -0.0689 -0.0998 -0.0287
    1TYR    SC3 1012   1.632   4.600   2.190 -0.2022  0.2871  0.0954
    2PHE     BB 1013   1.469   4.201   2.707  0.1504  0.0727  0.1562
    2PHE    SC1 1014   1.357   4.167   2.402  0.2234  0.0282 -0.0258
    2PHE    SC2 1015   1.238   4.306   2.204  0.0908  0.1458  0.1324
    2PHE    SC3 1016   1.134   4.069   2.284  0.1682  0.0779  0.0360
    3TYR     BB 1017   1.372   4.244   2.969 -0.4626 -0.0995 -0.0507
    3TYR    SC1 1018   1.283   4.022   3.138 -0.1024  0.1298 -0.1230
    3TYR    SC2 1019   1.081   3.912   3.278 -0.0809  0.1532 -0.0730
    3TYR    SC3 1020   1.268   3.755   3.163 -0.1042  0.1336 -0.0842
    1TYR     BB 1021   8.150   2.975   2.425 -0.1248 -0.1146  0.0901
    1TYR    SC1 1022   8.348   3.167   2.338 -0.2540  0.1845 -0.2131
    1TYR    SC2 1023   8.468   3.405   2.305  0.1059  0.0489  0.0477
    1TYR    SC3 1024   8.493   3.216   2.116  0.4212 -0.0181  0.1473
    2PHE     BB 1025   8.067   3.045   2.753  0.0708 -0.0289 -0.2719
    2PHE    SC1 1026   7.897   3.271   2.664 -0.3149 -0.3799 -0.4470
    2PHE    SC2 1027   7.680   3.428   2.625 -0.1725 -0.0175  0.0736
    2PHE    SC3 1028   7.917   3.498   2.516 -0.2040 -0.1344 -0.0744
    3TYR     BB 1029   7.981   2.817   2.963  0.0409 -0.3673 -0.1955
    3TYR    SC1 1030   7.907   2.830   3.257 -0.0528  0.2233  0.0158
    3TYR    SC2 1031   8.038   2.798   3.491 -0.1541 -0.3089  0.0172
    3TYR    SC3 1032   7.778   2.729   3.471 -0.1569 -0.2371 -0.2470
    1TYR     BB 1033   5.271   5.578   5.796  0.1748 -0.2517  0.1151
    1TYR    SC1 1034   4.990   5.520   5.765 -0.0598  0.2253 -0.2466
    1TYR    SC2 1035   4.724   5.496   5.808 -0.0130  0.0520 -0.0327
    1TYR    SC3 1036   4.839   5.372   5.598 -0.0262 -0.3091  0.1637
    2PHE     BB 1037   5.323   5.730   5.513 -0.1441  0.0974 -0.2018
    2PHE    SC1 1038   5.511   5.992   5.554 -0.0607 -0.0978  0.1827
    2PHE    SC2 1039   5.627   6.161   5.379 -0.0104 -0.0201  0.2891
    2PHE    SC3 1040   5.780   6.016   5.547 -0.0350 -0.3667  0.0298
    3TYR     BB 1041   5.310   5.676   5.182  0.0296  0.2433 -0.1742
    3TYR    SC1 1042   5.075   5.804   4.940 -0.3096  0.2852  0.2848
    3TYR    SC2 1043   4.887   5.965   4.834 -0.2462  0.0661 -0.1928
    3TYR    SC3 1044   4.994   5.767   4.686  0.2982  0.1231  0.0926
    1TYR     BB 1045   8.959   3.922   3.361 -0.3058  0.0490 -0.0674
    1TYR    SC1 1046   9.056   3.667   3.509  0.0604  0.1862  0.2045
    1TYR    SC2 1047   9.137   3.542   3.734 -0.1133  0.0163  0.1757
    1TYR    SC3 1048   9.219   3.453   3.494 -0.0108  0.1344  0.1654
    2PHE     BB 1049   8.752   3.831   3.153  0.2532  0.1172 -0.2262
    2PHE    SC1 1050   8.538   4.020   3.135  0.0523  0.2693 -0.2757
    2PHE    SC2 1051   8.282   4.097   3.104 -0.0973 -0.1887 -0.2602
    2PHE    SC3 1052   8.479   4.280   3.099 -0.4213  0.1741 -0.2596
    3TYR     BB 1053   8.669   3.524   3.208  0.1069  0.1731  0.1058
    3TYR    SC1 1054   8.491   3.365   3.410 -0.2237  0.1791  0.1640
    3TYR    SC2 1055   8.286   3.251   3.543 -0.3796  0.4990  0.2067
    3TYR    SC3 1056   8.466   3.402   3.676  0.1813 -0.1642  0.2637
    1TYR     BB 1057   5.279   3.451   3.879  0.0453  0.1089 -0.1617
    1TYR    SC1 1058   5.045   3.206   3.924  0.0158  0.2789  0.4403
    1TYR    SC2 1059   4.978   3.020   4.108 -0.3953 -0.1696 -0.1164
    1TYR    SC3 1060   4.789   3.124   3.947 -0.0833  0.3628 -0.1705
    2PHE     BB 1061   5.332   3.391   4.220  0.1756  0.0506  0.1373
    2PHE    SC1 1062   5.427   3.084   4.189  0.0060 -0.2994  0.1759
    2PHE    SC2 1063   5.402   2.933   3.967  0.2978 -0.0022 -0.0707
    2PHE    SC3 1064   5.494   2.822   4.195 -0.0301 -0.3173 -0.0795
    3TYR     BB 1065   5.074   3.435   4.361 -0.1501 -0.0766  0.1836
    3TYR    SC1 1066   5.087   3.419   4.653  0.0066 -0.1007  0.0235
    3TYR    SC2 1067   5.131   3.496   4.909 -0.0974  0.2500 -0.0580
    3TYR    SC3 1068   4.903   3.367   4.844  0.0525 -0.0933  0.0701
    1TYR     BB 1069   5.847   4.903   6.501 -0.2988 -0.0123 -0.0074
    1TYR    SC1 1070   5.642   5.051   6.646 -0.1519  0.0569  0.0108
    1TYR    SC2 1071   5.411   5.003   6.778 -0.0004  0.1721  0.3358
    1TYR    SC3 1072   5.469   5.253   6.692 -0.1386  0.0818 -0.0479
    2PHE     BB 1073   5.624   4.887   6.176 -0.1048  0.2641  0.2428
    2PHE    SC1 1074   5.408   4.778   6.334 -0.0447  0.0243 -0.3944
    2PHE    SC2 1075   5.422   4.579   6.516 -0.0210  0.1989 -0.1993
    2PHE    SC3 1076   5.182   4.656   6.420 -0.0501  0.2184 -0.1129
    3TYR     BB 1077   5.661   5.221   6.024 -0.1554 -0.0839  0.0332
    3TYR    SC1 1078   5.468   5.339   6.215  0.1315  0.3138 -0.1607
    3TYR    SC2 1079   5.346   5.523   6.372  0.2709  0.0546  0.2701
    3TYR    SC3 1080   5.233   5.280   6.336  0.3833  0.0111  0.2064
    1TYR     BB 1081   1.281   4.320   4.004 -0.0592  0.3321 -0.1109
    1TYR    SC1 1082   1.383   4.274   3.739 -0.1211  0.2418  0.0704
    1TYR    SC2 1083   1.380   4.356   3.482 -0.0726 -0.0583 -0.0312
    1TYR    SC3 1084   1.611   4.276   3.595 -0.1319 -0.1360  0.0360
    2PHE     BB 1085   0.999   4.288   4.067  0.3360 -0.0843  0.0182
    2PHE    SC1 1086   0.955   4.368   4.395  0.1455 -0.2488 -0.2295
    2PHE    SC2 1087   1.066   4.440   4.630  0.1567 -0.1107 -0.2758
    2PHE    SC3 1088   0.802   4.387   4.617  0.1036  0.1373 -0.2818
    3TYR     BB 1089   0.694   4.386   3.980  0.1004 -0.0852 -0.1349
    3TYR    SC1 1090   0.529   4.535   4.196 -0.1599 -0.0095  0.0520
    3TYR    SC2 1091   0.383   4.758   4.154 -0.3823 -0.1446  0.0887
    3TYR    SC3 1092   0.417   4.665   4.406  0.3582  0.2695  0.1792
    1TYR     BB 1093   3.847   3.892   3.645 -0.2171 -0.0963  0.4695
    1TYR    SC1 1094   3.749   3.609   3.616 -0.0766 -0.2503 -0.0036
    1TYR    SC2 1095   3.799   3.343   3.609  0.0987 -0.2161 -0.3970
    1TYR    SC3 1096   3.575   3.442   3.495 -0.1694 -0.2230  0.0906
    2PHE     BB 1097   3.634   4.127   3.519 -0.2106  0.1187 -0.1940
    2PHE    SC1 1098   3.502   3.993   3.290  0.1257  0.1691 -0.1948
    2PHE    SC2 1099   3.531   3.803   3.100 -0.0122  0.0869 -0.1357
    2PHE    SC3 1100   3.288   3.851   3.208  0.1241 -0.1566  0.3146
    3TYR     BB 1101   3.669   4.442   3.506  0.1770  0.1226 -0.4201
    3TYR    SC1 1102   3.580   4.695   3.673 -0.2825 -0.0232 -0.2698
    3TYR    SC2 1103   3.363   4.807   3.789 -0.0618 -0.0981  0.2475
    3TYR    SC3 1104   3.561   4.964   3.693 -0.1297 -0.0360  0.2078
    1TYR     BB 1105   7.506   4.246   2.782 -0.0435 -0.2264 -0.0883
    1TYR    SC1 1106   7.723   4.071   2.701 -0.1467 -0.1369 -0.2424
    1TYR    SC2 1107   7.872   3.847   2.725 -0.1523 -0.0949  0.3801
    1TYR    SC3 1108   7.977   4.087   2.793  0.0523  0.2238 -0.7897
    2PHE     BB 1109   7.639   4.561   2.801  0.1248  0.2061  0.0174
    2PHE    SC1 1110   7.918   4.579   2.833  0.0040  0.0427 -0.0640
    2PHE    SC2 1111   8.157   4.691   2.781  0.1073 -0.0347  0.2225
    2PHE    SC3 1112   8.132   4.513   2.982 -0.1831 -0.0646  0.1652
    3TYR     BB 1113   7.457   4.808   2.801 -0.1461 -0.1070  0.1396
    3TYR    SC1 1114   7.349   5.023   2.604 -0.2561 -0.2143 -0.1188
    3TYR    SC2 1115   7.311   5.290   2.591  0.0267 -0.1510  0.1719
    3TYR    SC3 1116   7.261   5.135   2.375 -0.0169  0.1508 -0.0426
    1TYR     BB 1117   5.705   3.682   3.933 -0.0175 -0.0253 -0.0731
    1TYR    SC1 1118   5.783   3.433   3.835 -0.2995  0.1089  0.0681
    1TYR    SC2 1119   5.955   3.236   3.900 -0.0361  0.3175  0.0241
    1TYR    SC3 1120   5.703   3.175   3.829 -0.0056  0.0099  0.1573
    2PHE     BB 1121   5.738   3.655   4.285 -0.2911  0.1954 -0.1654
    2PHE    SC1 1122   5.842   3.364   4.302  0.2534  0.0745  0.2185
    2PHE    SC2 1123   5.840   3.094   4.301  0.1517  0.0748  0.1609
    2PHE    SC3 1124   6.043   3.227   4.419  0.0858 -0.0257  0.3938
    3TYR     BB 1125   5.885   3.833   4.414  0.0777 -0.2401 -0.1657
    3TYR    SC1 1126   5.830   3.967   4.707 -0.1483 -0.0118 -0.0372
    3TYR    SC2 1127   5.853   4.077   4.952 -0.1113 -0.1996  0.0457
    3TYR    SC3 1128   5.833   3.808   4.926 -0.0764 -0.1840 -0.1595
    1TYR     BB 1129   4.034   2.488   4.248  0.3873  0.0774  0.0526
    1TYR    SC1 1130   3.861   2.693   4.408 -0.0262 -0.0654  0.1625
    1TYR    SC2 1131   3.946   2.925   4.519 -0.0429  0.2772 -0.4796
    1TYR    SC3 1132   3.683   2.883   4.479 -0.0420  0.1287 -0.3445
    2PHE     BB 1133   3.942   2.511   3.942  0.1359  0.0448  0.1213
    2PHE    SC1 1134   3.768   2.786   3.965 -0.1591  0.1126  0.0496
    2PHE    SC2 1135   3.529   2.878   4.050 -0.1942  0.0982 -0.0330
    2PHE    SC3 1136   3.740   3.045   4.036 -0.1847  0.0977  0.0948
    3TYR     BB 1137   3.922   2.340   3.711 -0.1005 -0.0832 -0.0074
    3TYR    SC1 1138   4.068   2.090   3.637  0.3644  0.0142 -0.0651
    3TYR    SC2 1139   4.006   1.915   3.441 -0.1072 -0.0165  0.0958
    3TYR    SC3 1140   4.254   1.917   3.547  0.0996 -0.1325 -0.3563
    1TYR     BB 1141   2.628   3.276   3.091 -0.1378  0.0667 -0.2207
    1TYR    SC1 1142   2.493   3.439   2.850  0.0731 -0.2741 -0.1616
    1TYR    SC2 1143   2.257   3.492   2.728 -0.0691 -0.2250  0.1252
    1TYR    SC3 1144   2.476   3.640   2.670 -0.1865 -0.0635  0.0866
    2PHE     BB 1145   2.347   3.129   3.183  0.2309  0.0047  0.0694
    2PHE    SC1 1146   2.421   2.884   3.270 -0.2890  0.0172 -0.0884
    2PHE    SC2 1147   2.624   2.725   3.191  0.0385  0.2997  0.1479
    2PHE    SC3 1148   2.421   2.621   3.335  0.1177  0.0519  0.0885
    3TYR     BB 1149   2.112   3.263   3.287 -0.2125 -0.1620 -0.1334
    3TYR    SC1 1150   1.992   3.447   3.497  0.0525 -0.0603  0.0772
    3TYR    SC2 1151   2.070   3.638   3.671  0.1135 -0.0599  0.0496
    3TYR    SC3 1152   1.878   3.692   3.489  0.0819 -0.0462  0.0868
    1TYR     BB 1153   5.033   4.533   5.952  0.0568  0.1496  0.4105
    1TYR    SC1 1154   4.768   4.497   6.180  0.2730  0.3030 -0.0908
    1TYR    SC2 1155   4.789   4.540   6.446  0.1334  0.7359 -0.1397
    1TYR    SC3 1156   4.549   4.478   6.337  0.2311  0.3305 -0.1451
    2PHE     BB 1157   5.310   4.538   5.859 -0.0211 -0.0081  0.1739
    2PHE    SC1 1158   5.556   4.422   5.991  0.1434  0.0660 -0.2945
    2PHE    SC2 1159   5.674   4.321   6.211  0.1802 -0.1466 -0.4083
    2PHE    SC3 1160   5.825   4.428   6.014  0.1403  0.1549 -0.2802
    3TYR     BB 1161   5.340   4.428   5.548 -0.0208  0.0627  0.0092
    3TYR    SC1 1162   5.151   4.419   5.327 -0.1209 -0.0783  0.1562
    3TYR    SC2 1163   4.998   4.260   5.172  0.2878 -0.1366 -0.2116
    3TYR    SC3 1164   5.062   4.509   5.089  0.4247 -0.1288 -0.0863
    1TYR     BB 1165   7.180   3.371   3.130  0.2100  0.3316  0.2189
    1TYR    SC1 1166   7.408   3.560   2.992  0.2994 -0.0206 -0.2352
    1TYR    SC2 1167   7.553   3.782   3.044 -0.5042  0.5070 -0.0081
    1TYR    SC3 1168   7.425   3.757   2.808  0.1586 -0.1161 -0.3537
    2PHE     BB 1169   7.266   3.145   2.895 -0.3237  0.0968  0.2168
    2PHE    SC1 1170   7.162   3.294   2.646 -0.2573 -0.1224 -0.0874
    2PHE    SC2 1171   7.162   3.234   2.383  0.1705 -0.1588 -0.0891
    2PHE    SC3 1172   7.241   3.479   2.466 -0.1969 -0.0621 -0.0001
    3TYR     BB 1173   7.477   2.917   2.925  0.2059 -0.2219  0.1003
    3TYR    SC1 1174   7.461   2.629   2.995 -0.3364  0.3207 -0.0165
    3TYR    SC2 1175   7.489   2.380   2.895  0.3015  0.4516 -0.2191
    3TYR    SC3 1176   7.545   2.429   3.154 -0.0489  0.3556 -0.1182
   7.65584   7.65584   7.65584
