Generated by trjconv : Martini system from ../2_Creating_coordinates/TYR-ILE-TYR_aa.pdb t=   0.00000
 1000
    1TYR     BB    1   2.052   5.466   3.573 -0.0074 -0.2269  0.1707
    1TYR    SC1    2   2.332   5.498   3.546 -0.3100 -0.1714 -0.3267
    1TYR    SC2    3   2.560   5.410   3.428 -0.1513  0.0716 -0.2084
    1TYR    SC3    4   2.530   5.673   3.489 -0.2705 -0.0250  0.1916
    2ILE     BB    5   1.896   5.312   3.819  0.1317 -0.0524  0.2066
    2ILE    SC1    6   1.873   5.026   3.704 -0.0844  0.0778 -0.0893
    3TYR     BB    7   1.762   5.473   4.080 -0.1662 -0.1350 -0.0466
    3TYR    SC1    8   1.768   5.755   4.112  0.2578 -0.1110  0.1301
    3TYR    SC2    9   1.826   5.909   3.900 -0.2922  0.0252  0.0573
    3TYR    SC3   10   1.676   6.009   4.099 -0.3170 -0.2974  0.2068
    1TYR     BB   11   1.364   5.234   3.817 -0.2061 -0.2305  0.1832
    1TYR    SC1   12   1.498   5.061   4.032 -0.1533 -0.0841  0.1260
    1TYR    SC2   13   1.688   4.934   4.178  0.0984 -0.2583 -0.3277
    1TYR    SC3   14   1.498   4.791   4.049  0.0175 -0.1266 -0.3576
    2ILE     BB   15   1.274   5.050   3.586 -0.0225  0.1862 -0.0814
    2ILE    SC1   16   1.452   4.799   3.551 -0.2215 -0.0122  0.2655
    3TYR     BB   17   1.091   5.177   3.347 -0.0201  0.0699 -0.1140
    3TYR    SC1   18   0.971   5.036   3.125  0.1946 -0.2739 -0.1039
    3TYR    SC2   19   0.702   5.041   3.091  0.1858  0.1259 -0.0502
    3TYR    SC3   20   0.867   5.038   2.876  0.1426 -0.0538 -0.0834
    1TYR     BB   21   7.141   5.073   4.442 -0.2576 -0.3385  0.0644
    1TYR    SC1   22   6.917   5.059   4.215  0.0156  0.1527  0.0410
    1TYR    SC2   23   6.816   5.207   4.014  0.2403 -0.0796 -0.2559
    1TYR    SC3   24   6.668   5.011   4.125  0.0329  0.1937 -0.0295
    2ILE     BB   25   7.377   4.843   4.334  0.1202 -0.0979  0.0965
    2ILE    SC1   26   7.540   4.704   4.556 -0.1028 -0.0271  0.3094
    3TYR     BB   27   7.296   4.570   4.095  0.1092  0.2904 -0.2343
    3TYR    SC1   28   7.018   4.685   3.962  0.1622 -0.0751  0.0011
    3TYR    SC2   29   6.844   4.796   3.789  0.0796 -0.0162  0.1204
    3TYR    SC3   30   6.771   4.580   3.934  0.0431  0.1160  0.3003
    1TYR     BB   31   5.463   4.378   2.602 -0.0088  0.0525 -0.1783
    1TYR    SC1   32   5.501   4.143   2.384 -0.2829 -0.5579  0.3965
    1TYR    SC2   33   5.624   3.938   2.259 -0.0967 -0.1214 -0.1928
    1TYR    SC3   34   5.373   4.006   2.189 -0.1840 -0.1808  0.0505
    2ILE     BB   35   5.564   4.640   2.695 -0.0305 -0.1830  0.0238
    2ILE    SC1   36   5.450   4.704   2.976 -0.1468 -0.2156 -0.0156
    3TYR     BB   37   5.913   4.636   2.838 -0.2065  0.5421 -0.0675
    3TYR    SC1   38   6.042   4.386   2.702  0.1635 -0.1952  0.0285
    3TYR    SC2   39   6.177   4.171   2.610 -0.0842 -0.3013 -0.0990
    3TYR    SC3   40   5.947   4.246   2.491  0.0236  0.0691 -0.0890
    1TYR     BB   41   1.561   5.669   3.571 -0.2191  0.1652 -0.2456
    1TYR    SC1   42   1.512   5.415   3.347 -0.0558  0.0548 -0.0186
    1TYR    SC2   43   1.672   5.201   3.303 -0.2208 -0.0853  0.0498
    1TYR    SC3   44   1.503   5.286   3.108  0.0478  0.1661 -0.0848
    2ILE     BB   45   1.323   5.770   3.717 -0.0071 -0.1364 -0.0207
    2ILE    SC1   46   1.106   5.645   3.536 -0.0562 -0.0470 -0.0240
    3TYR     BB   47   1.244   5.729   3.998  0.1577  0.1140 -0.0154
    3TYR    SC1   48   0.961   5.952   3.974 -0.0380 -0.0938 -0.0247
    3TYR    SC2   49   0.856   6.189   3.898  0.0111 -0.1322 -0.2222
    3TYR    SC3   50   0.710   6.019   4.049 -0.0644 -0.0231 -0.1704
    1TYR     BB   51   2.292   4.946   3.866 -0.1838  0.1033 -0.2117
    1TYR    SC1   52   2.198   4.785   4.072 -0.2162  0.0180  0.0805
    1TYR    SC2   53   1.989   4.640   4.164 -0.1164  0.0343  0.3404
    1TYR    SC3   54   2.226   4.520   4.115 -0.2124 -0.0045 -0.0575
    2ILE     BB   55   2.583   5.009   3.806  0.1249 -0.0892  0.0065
    2ILE    SC1   56   2.724   5.108   4.064  0.2337  0.2667 -0.1824
    3TYR     BB   57   2.763   4.894   3.528 -0.1401 -0.1059 -0.0548
    3TYR    SC1   58   2.928   5.074   3.311 -0.2371  0.0774 -0.2756
    3TYR    SC2   59   2.936   5.326   3.216 -0.2259  0.1612 -0.0650
    3TYR    SC3   60   2.979   5.115   3.050  0.0294  0.3071 -0.1930
    1TYR     BB   61   2.757   3.090   5.451  0.3934  0.0819 -0.3861
    1TYR    SC1   62   2.441   3.157   5.416  0.3692  0.1318 -0.0938
    1TYR    SC2   63   2.216   3.290   5.481  0.3489  0.0019  0.1137
    1TYR    SC3   64   2.202   3.071   5.323  0.3704  0.1759 -0.1386
    2ILE     BB   65   2.849   2.889   5.188 -0.4099  0.1050  0.2945
    2ILE    SC1   66   3.042   2.676   5.305 -0.0304  0.1026 -0.2828
    3TYR     BB   67   3.056   2.933   4.877 -0.1037  0.0585 -0.2625
    3TYR    SC1   68   2.927   2.964   4.634  0.3232  0.2712 -0.2371
    3TYR    SC2   69   2.739   2.898   4.451 -0.2636  0.0880  0.3842
    3TYR    SC3   70   2.795   3.158   4.498 -0.0066  0.1382 -0.1207
    1TYR     BB   71   5.095   4.476   3.213  0.1665  0.3047 -0.1924
    1TYR    SC1   72   4.945   4.526   2.951 -0.1054 -0.0971 -0.1294
    1TYR    SC2   73   4.780   4.706   2.836  0.2881  0.2718 -0.1499
    1TYR    SC3   74   5.026   4.662   2.732  0.4420  0.1991  0.2261
    2ILE     BB   75   5.029   4.413   3.428 -0.0635 -0.1115 -0.1894
    2ILE    SC1   76   4.997   4.174   3.622 -0.0933  0.0659  0.0269
    3TYR     BB   77   5.027   4.667   3.691  0.0871 -0.0825 -0.1525
    3TYR    SC1   78   4.741   4.659   3.821  0.0298 -0.0254 -0.2208
    3TYR    SC2   79   4.497   4.599   3.921  0.2035 -0.2842  0.0684
    3TYR    SC3   80   4.545   4.845   3.819 -0.1843 -0.2420 -0.0294
    1TYR     BB   81   0.279   3.469   3.178 -0.2752 -0.1296 -0.2058
    1TYR    SC1   82   0.502   3.259   3.280 -0.0413 -0.0112  0.2058
    1TYR    SC2   83   0.761   3.189   3.308  0.0235  0.0535 -0.1758
    1TYR    SC3   84   0.575   3.085   3.473  0.3199  0.2089  0.2790
    2ILE     BB   85   0.337   3.658   2.906  0.2173  0.1088 -0.2700
    2ILE    SC1   86   0.104   3.547   2.735 -0.1045  0.1697  0.1124
    3TYR     BB   87   0.386   3.975   2.761  0.1736 -0.2130 -0.2341
    3TYR    SC1   88   0.168   4.187   2.773  0.4066 -0.1589 -0.2417
    3TYR    SC2   89   0.019   4.398   2.856  0.4478 -0.2362  0.0418
    3TYR    SC3   90   0.201   4.429   2.657  0.3732 -0.0332  0.0035
    1TYR     BB   91   6.589   4.027   3.687 -0.1875 -0.1021  0.0986
    1TYR    SC1   92   6.885   4.130   3.715 -0.0379 -0.1666 -0.0712
    1TYR    SC2   93   7.119   4.004   3.671  0.1517  0.1656 -0.0617
    1TYR    SC3   94   7.112   4.274   3.689 -0.2065  0.1532  0.1169
    2ILE     BB   95   6.413   4.267   3.799  0.0244 -0.2643  0.1670
    2ILE    SC1   96   6.470   4.175   4.089  0.2224 -0.0207  0.2088
    3TYR     BB   97   6.359   4.544   3.659  0.3926 -0.0607 -0.3029
    3TYR    SC1   98   6.645   4.555   3.454 -0.0181  0.2655  0.2059
    3TYR    SC2   99   6.899   4.502   3.380 -0.1208  0.1448 -0.0749
    3TYR    SC3  100   6.801   4.751   3.352 -0.1032  0.1402 -0.1853
    1TYR     BB  101   4.893   3.181   5.107 -0.0086  0.2908  0.0299
    1TYR    SC1  102   4.638   2.999   5.150  0.0880 -0.4152  0.0568
    1TYR    SC2  103   4.389   3.097   5.190  0.2282  0.0561 -0.1346
    1TYR    SC3  104   4.423   2.836   5.134 -0.2154 -0.0264 -0.0726
    2ILE     BB  105   4.990   3.208   4.727 -0.0094 -0.0651 -0.0672
    2ILE    SC1  106   5.130   3.483   4.697  0.0959 -0.0915  0.1513
    3TYR     BB  107   5.032   2.994   4.481  0.0678  0.0291 -0.1784
    3TYR    SC1  108   4.791   2.895   4.352 -0.2017  0.0419 -0.0022
    3TYR    SC2  109   4.705   2.713   4.173  0.2186  0.0793 -0.2573
    3TYR    SC3  110   4.609   2.965   4.165 -0.1523 -0.0470 -0.0842
    1TYR     BB  111   2.197   4.510   3.017 -0.3516  0.2954 -0.0539
    1TYR    SC1  112   2.217   4.636   2.774  0.2633  0.0305  0.2892
    1TYR    SC2  113   2.100   4.698   2.539 -0.3907 -0.1567  0.5358
    1TYR    SC3  114   2.316   4.836   2.621 -0.1019 -0.1224 -0.1813
    2ILE     BB  115   2.405   4.361   3.274 -0.0460  0.0575 -0.0864
    2ILE    SC1  116   2.363   4.593   3.476 -0.0562  0.0861 -0.1209
    3TYR     BB  117   2.736   4.355   3.280 -0.1310 -0.1885 -0.1562
    3TYR    SC1  118   2.976   4.381   3.465  0.1885 -0.2850 -0.4252
    3TYR    SC2  119   3.185   4.505   3.580  0.0325 -0.2288 -0.1954
    3TYR    SC3  120   3.068   4.296   3.703 -0.4544  0.1430  0.0143
    1TYR     BB  121   0.837   3.605   3.684 -0.1991  0.2250 -0.0786
    1TYR    SC1  122   0.712   3.674   3.406  0.0059  0.1328  0.2853
    1TYR    SC2  123   0.761   3.685   3.142  0.0473 -0.0157  0.2858
    1TYR    SC3  124   0.582   3.854   3.253 -0.1211 -0.0864  0.1293
    2ILE     BB  125   1.019   3.718   3.810  0.0878 -0.2023  0.2469
    2ILE    SC1  126   1.128   3.497   3.996 -0.0553 -0.3209  0.1935
    3TYR     BB  127   0.993   3.936   4.050  0.1833 -0.0855 -0.2020
    3TYR    SC1  128   0.815   4.198   4.043  0.3816  0.0522 -0.1554
    3TYR    SC2  129   0.583   4.262   4.165  0.5126 -0.2152  0.2619
    3TYR    SC3  130   0.772   4.452   4.124  0.1236  0.0770 -0.3550
    1TYR     BB  131   1.962   3.857   3.986  0.1824 -0.0176  0.0983
    1TYR    SC1  132   1.720   3.846   4.173 -0.1533  0.0038  0.2192
    1TYR    SC2  133   1.450   3.852   4.171 -0.1601 -0.2110  0.0448
    1TYR    SC3  134   1.582   3.799   4.400 -0.2533  0.1460  0.1900
    2ILE     BB  135   2.143   4.022   3.989  0.0625 -0.0127  0.0754
    2ILE    SC1  136   2.330   4.068   4.234  0.3529 -0.6024 -0.0158
    3TYR     BB  137   2.316   4.159   3.761 -0.0464 -0.2441  0.0601
    3TYR    SC1  138   2.552   4.296   3.831 -0.0879 -0.0739 -0.0666
    3TYR    SC2  139   2.753   4.335   4.005 -0.0262 -0.0243 -0.1483
    3TYR    SC3  140   2.662   4.540   3.858  0.1344 -0.1300 -0.4033
    1TYR     BB  141   2.290   5.627   4.893  0.1644  0.2928 -0.2641
    1TYR    SC1  142   2.049   5.464   4.937 -0.1446  0.1317  0.2524
    1TYR    SC2  143   2.013   5.200   4.983 -0.2134  0.0947  0.0043
    1TYR    SC3  144   1.823   5.377   5.056 -0.2905  0.0445 -0.0712
    2ILE     BB  145   2.383   5.660   4.595  0.0979 -0.1622  0.0116
    2ILE    SC1  146   2.640   5.503   4.520  0.0839 -0.1520 -0.0598
    3TYR     BB  147   2.104   5.712   4.433  0.1253  0.0630  0.1021
    3TYR    SC1  148   1.844   5.807   4.581 -0.1734  0.1452  0.2860
    3TYR    SC2  149   1.585   5.851   4.517 -0.1677 -0.1460  0.0432
    3TYR    SC3  150   1.649   5.749   4.759 -0.2760 -0.0459  0.1152
    1TYR     BB  151   3.188   2.401   4.896 -0.0609 -0.1909  0.0737
    1TYR    SC1  152   2.874   2.470   4.817 -0.1024  0.0588 -0.0416
    1TYR    SC2  153   2.660   2.634   4.818 -0.3600 -0.2644 -0.0087
    1TYR    SC3  154   2.734   2.513   4.590 -0.0880 -0.0107 -0.0638
    2ILE     BB  155   3.379   2.587   4.642  0.1958  0.0839  0.0196
    2ILE    SC1  156   3.179   2.573   4.406  0.2119  0.0297  0.0090
    3TYR     BB  157   3.486   2.839   4.713  0.1439  0.4014  0.3542
    3TYR    SC1  158   3.573   2.746   5.029  0.1865 -0.3054  0.0762
    3TYR    SC2  159   3.507   2.765   5.291  0.3958  0.0944  0.1093
    3TYR    SC3  160   3.746   2.661   5.219  0.3005 -0.1000  0.0690
    1TYR     BB  161   4.913   3.126   3.285  0.3434  0.1723  0.0954
    1TYR    SC1  162   4.870   2.894   3.075  0.0239  0.1022 -0.0585
    1TYR    SC2  163   4.676   2.869   2.889  0.1622  0.0086 -0.1939
    1TYR    SC3  164   4.825   2.655   2.957  0.1195  0.0437  0.0209
    2ILE     BB  165   5.110   3.282   3.298  0.0249  0.2579 -0.0671
    2ILE    SC1  166   5.266   3.324   3.562  0.2761 -0.0896 -0.1506
    3TYR     BB  167   5.183   3.500   3.002  0.3682 -0.1171  0.2099
    3TYR    SC1  168   5.103   3.284   2.773 -0.1803  0.1443  0.3139
    3TYR    SC2  169   5.012   3.249   2.521 -0.1254  0.6084  0.2174
    3TYR    SC3  170   5.039   3.037   2.685  0.0860  0.2532 -0.2469
    1TYR     BB  171   8.516   2.751   3.194 -0.0642  0.0282 -0.2358
    1TYR    SC1  172   8.305   2.719   3.434 -0.0832 -0.0606  0.1046
    1TYR    SC2  173   8.171   2.788   3.658  0.1411  0.0063  0.2232
    1TYR    SC3  174   8.141   2.541   3.554 -0.2921  0.1083  0.0768
    2ILE     BB  175   8.796   2.702   3.456 -0.1572  0.0669 -0.1378
    2ILE    SC1  176   8.917   2.444   3.333 -0.0039 -0.0648  0.2656
    3TYR     BB  177   8.727   2.710   3.716 -0.1095 -0.0464 -0.2961
    3TYR    SC1  178   8.477   2.540   3.862  0.1236 -0.5424 -0.1775
    3TYR    SC2  179   8.372   2.292   3.892 -0.3093 -0.3446  0.0585
    3TYR    SC3  180   8.319   2.484   4.075  0.0372 -0.0760 -0.1081
    1TYR     BB  181   2.855   3.526   3.056  0.0630  0.0062 -0.2064
    1TYR    SC1  182   2.715   3.453   2.816  0.0354 -0.3315  0.0228
    1TYR    SC2  183   2.494   3.411   2.667 -0.0032 -0.1060  0.0124
    1TYR    SC3  184   2.705   3.243   2.646 -0.1790 -0.3365  0.0379
    2ILE     BB  185   2.738   3.655   3.345  0.0361 -0.2435 -0.1200
    2ILE    SC1  186   2.745   3.422   3.548  0.1050 -0.0499  0.1051
    3TYR     BB  187   2.690   3.922   3.472  0.0794 -0.0602 -0.5838
    3TYR    SC1  188   2.820   3.910   3.772  0.1672 -0.0014  0.0538
    3TYR    SC2  189   3.011   3.809   3.936 -0.2834 -0.2009  0.4866
    3TYR    SC3  190   2.792   3.930   4.040 -0.2215  0.3946 -0.0023
    1TYR     BB  191   6.475   3.212   4.063  0.1349  0.2500 -0.3562
    1TYR    SC1  192   6.353   3.226   4.352 -0.0716 -0.2113 -0.0246
    1TYR    SC2  193   6.489   3.086   4.539  0.1075 -0.1031 -0.0707
    1TYR    SC3  194   6.292   3.254   4.614  0.0359 -0.2186  0.0022
    2ILE     BB  195   6.374   3.203   3.834  0.1861 -0.1833  0.0059
    2ILE    SC1  196   6.142   3.026   3.730  0.0954  0.0343 -0.1744
    3TYR     BB  197   6.509   3.191   3.502  0.1887  0.0123  0.0623
    3TYR    SC1  198   6.615   3.152   3.235 -0.1254  0.1365 -0.1993
    3TYR    SC2  199   6.722   3.264   3.014 -0.2152  0.1233 -0.2506
    3TYR    SC3  200   6.560   3.050   2.992  0.0989 -0.1375 -0.1408
    1TYR     BB  201   3.171   3.716   4.884 -0.1675 -0.2437 -0.1842
    1TYR    SC1  202   3.310   3.996   4.772 -0.5295 -0.2773 -0.1845
    1TYR    SC2  203   3.345   4.180   4.579 -0.2287  0.1857  0.2752
    1TYR    SC3  204   3.530   4.152   4.772 -0.2837 -0.5957  0.2522
    2ILE     BB  205   3.209   3.453   4.695 -0.2591  0.1326 -0.0253
    2ILE    SC1  206   3.201   3.599   4.422 -0.1562 -0.0413 -0.1233
    3TYR     BB  207   3.390   3.285   4.778  0.0081 -0.1725 -0.1291
    3TYR    SC1  208   3.405   3.267   5.105  0.0032  0.2487  0.0297
    3TYR    SC2  209   3.548   3.312   5.328  0.0097  0.6633 -0.0484
    3TYR    SC3  210   3.311   3.187   5.345  0.3150  0.0545  0.0938
    1TYR     BB  211   2.904   2.058   3.772 -0.0233 -0.0589  0.1548
    1TYR    SC1  212   2.621   2.015   3.760 -0.0657 -0.1537 -0.2344
    1TYR    SC2  213   2.375   2.117   3.802 -0.0021 -0.0163 -0.1848
    1TYR    SC3  214   2.405   1.887   3.663 -0.1919 -0.2743  0.1836
    2ILE     BB  215   2.923   2.224   4.087 -0.0326  0.0780  0.0346
    2ILE    SC1  216   2.824   2.517   4.062  0.0464  0.0913 -0.1395
    3TYR     BB  217   3.004   2.096   4.411 -0.3998 -0.0247  0.0165
    3TYR    SC1  218   3.312   2.069   4.409  0.0535 -0.1879  0.1106
    3TYR    SC2  219   3.449   2.182   4.206 -0.3366 -0.4302 -0.3104
    3TYR    SC3  220   3.579   2.033   4.389  0.0039 -0.3553 -0.4810
    1TYR     BB  221   0.863   2.622   3.440  0.1263  0.2599  0.1265
    1TYR    SC1  222   0.873   2.366   3.238  0.1944  0.1232  0.2857
    1TYR    SC2  223   0.778   2.208   3.041  0.0011  0.4155  0.1354
    1TYR    SC3  224   0.912   2.099   3.249  0.2667  0.1048 -0.1844
    2ILE     BB  225   1.033   2.793   3.598  0.2176  0.0970  0.1260
    2ILE    SC1  226   1.162   2.630   3.828 -0.0888 -0.6275 -0.1770
    3TYR     BB  227   1.064   3.075   3.723 -0.1449 -0.2005 -0.4522
    3TYR    SC1  228   1.163   3.254   3.512  0.1078  0.1113  0.3286
    3TYR    SC2  229   1.135   3.458   3.337  0.0342  0.0427  0.2590
    3TYR    SC3  230   1.290   3.246   3.275  0.1039  0.0728  0.3276
    1TYR     BB  231   6.191   2.533   3.732 -0.0382 -0.0397 -0.0455
    1TYR    SC1  232   6.195   2.349   3.492  0.2877  0.1401 -0.3161
    1TYR    SC2  233   6.164   2.264   3.237  0.0208 -0.3983 -0.1270
    1TYR    SC3  234   6.331   2.133   3.406 -0.0992 -0.2946  0.0789
    2ILE     BB  235   6.364   2.486   3.947  0.1948  0.0442 -0.3636
    2ILE    SC1  236   6.456   2.208   4.047 -0.1387  0.0847  0.0984
    3TYR     BB  237   6.328   2.704   4.192  0.1647  0.0494 -0.0926
    3TYR    SC1  238   6.522   2.563   4.362  0.0396 -0.0035 -0.1571
    3TYR    SC2  239   6.606   2.535   4.616 -0.1686 -0.1573 -0.1020
    3TYR    SC3  240   6.728   2.400   4.419 -0.0101 -0.0419 -0.0858
    1TYR     BB  241   3.180   3.383   3.688 -0.2275  0.0761  0.2585
    1TYR    SC1  242   3.419   3.440   3.881  0.1561 -0.1099 -0.0010
    1TYR    SC2  243   3.509   3.598   4.079  0.0580  0.0309 -0.0661
    1TYR    SC3  244   3.676   3.522   3.882  0.2262 -0.3184  0.1956
    2ILE     BB  245   3.305   3.258   3.440 -0.4453  0.1014 -0.3596
    2ILE    SC1  246   3.342   3.493   3.241  0.1905 -0.0834 -0.4862
    3TYR     BB  247   3.356   2.988   3.280  0.1966 -0.0548  0.4189
    3TYR    SC1  248   3.599   3.061   3.102 -0.0000 -0.1069  0.3465
    3TYR    SC2  249   3.841   3.001   2.997 -0.0924  0.2039 -0.0761
    3TYR    SC3  250   3.711   3.226   2.919 -0.4284  0.1556  0.3020
    1TYR     BB  251   3.567   4.643   4.415 -0.2197 -0.1335  0.0324
    1TYR    SC1  252   3.807   4.794   4.415  0.2782  0.1038 -0.2470
    1TYR    SC2  253   3.902   5.011   4.544 -0.0112  0.0566  0.0626
    1TYR    SC3  254   4.021   4.771   4.578  0.2510  0.1416 -0.2055
    2ILE     BB  255   3.297   4.806   4.281  0.1852 -0.1385  0.0292
    2ILE    SC1  256   3.037   4.682   4.163  0.1049 -0.0277  0.0897
    3TYR     BB  257   3.289   5.084   4.349  0.0399 -0.0540  0.1467
    3TYR    SC1  258   3.491   5.337   4.330 -0.2608 -0.0250  0.1167
    3TYR    SC2  259   3.619   5.569   4.278  0.0114 -0.2264 -0.1501
    3TYR    SC3  260   3.730   5.386   4.443  0.1004 -0.4202 -0.4154
    1TYR     BB  261   5.995   4.891   3.773 -0.0934  0.1505  0.0437
    1TYR    SC1  262   5.964   5.204   3.787  0.1654 -0.1527  0.0632
    1TYR    SC2  263   5.860   5.371   3.602  0.4914  0.0735  0.0747
    1TYR    SC3  264   5.904   5.459   3.853  0.2698 -0.1626  0.2019
    2ILE     BB  265   6.226   4.805   4.083  0.3907  0.0022  0.3187
    2ILE    SC1  266   6.192   5.097   4.179  0.1272  0.0787  0.0183
    3TYR     BB  267   6.340   4.588   4.169  0.0949 -0.0095 -0.1381
    3TYR    SC1  268   6.599   4.627   4.311 -0.2214 -0.2678 -0.1592
    3TYR    SC2  269   6.856   4.566   4.372 -0.0941 -0.0968 -0.4863
    3TYR    SC3  270   6.730   4.765   4.504 -0.0602 -0.1770 -0.3286
    1TYR     BB  271   7.461   3.806   3.263 -0.0739 -0.2010  0.1381
    1TYR    SC1  272   7.298   3.665   3.048 -0.1009  0.0393  0.0767
    1TYR    SC2  273   7.104   3.496   2.967 -0.1770  0.0827  0.1692
    1TYR    SC3  274   7.195   3.684   2.798 -0.1075 -0.0358  0.0734
    2ILE     BB  275   7.493   3.773   3.553  0.0258 -0.1112  0.0929
    2ILE    SC1  276   7.332   3.538   3.677  0.0296  0.0145  0.3446
    3TYR     BB  277   7.786   3.759   3.672 -0.0578 -0.0522 -0.1947
    3TYR    SC1  278   8.031   3.835   3.510 -0.0203 -0.1083 -0.0409
    3TYR    SC2  279   8.282   3.907   3.575 -0.1153  0.0307  0.1929
    3TYR    SC3  280   8.234   3.774   3.344  0.1689  0.0033  0.1450
    1TYR     BB  281   3.755   3.759   3.385 -0.1810 -0.3846 -0.0379
    1TYR    SC1  282   3.736   3.827   3.117 -0.2250  0.2870  0.0599
    1TYR    SC2  283   3.644   3.956   2.899 -0.2486  0.1495 -0.0129
    1TYR    SC3  284   3.589   3.695   2.934  0.0334  0.0853 -0.0107
    2ILE     BB  285   3.743   4.100   3.521 -0.2260 -0.1706 -0.0880
    2ILE    SC1  286   3.697   4.046   3.823  0.0570 -0.1764 -0.0419
    3TYR     BB  287   3.898   4.283   3.439  0.0851  0.1116  0.0845
    3TYR    SC1  288   4.122   4.522   3.436  0.4026  0.0797 -0.1856
    3TYR    SC2  289   4.147   4.699   3.234  0.1358  0.2139 -0.1081
    3TYR    SC3  290   4.176   4.780   3.490 -0.1906  0.1979 -0.0610
    1TYR     BB  291   6.017   4.024   4.365 -0.2892 -0.0905 -0.0204
    1TYR    SC1  292   6.245   4.169   4.566  0.1078 -0.1822  0.4821
    1TYR    SC2  293   6.510   4.208   4.584  0.1481 -0.0822 -0.0734
    1TYR    SC3  294   6.340   4.409   4.642  0.1895 -0.1214  0.2039
    2ILE     BB  295   5.975   4.103   4.092 -0.1630  0.0875  0.0154
    2ILE    SC1  296   5.761   3.910   3.977  0.0201  0.0056 -0.1979
    3TYR     BB  297   5.846   4.423   4.011 -0.2707  0.1849  0.1114
    3TYR    SC1  298   5.842   4.546   4.312  0.3428  0.1488 -0.2402
    3TYR    SC2  299   5.850   4.783   4.442  0.4648  0.0924 -0.1421
    3TYR    SC3  300   5.932   4.559   4.566  0.0118 -0.0650 -0.1047
    1TYR     BB  301   1.844   3.404   3.026 -0.0865 -0.0445  0.0354
    1TYR    SC1  302   1.935   3.139   3.296 -0.0685  0.0834  0.2344
    1TYR    SC2  303   2.059   3.038   3.513  0.5817 -0.3433 -0.2844
    1TYR    SC3  304   2.016   2.882   3.297 -0.2005  0.0154 -0.4341
    2ILE     BB  305   1.612   3.230   2.922  0.0434  0.0264  0.0304
    2ILE    SC1  306   1.484   3.355   2.669  0.1006 -0.1315 -0.0784
    3TYR     BB  307   1.620   2.923   2.963  0.3394  0.0145  0.0196
    3TYR    SC1  308   1.558   2.811   3.253 -0.3724 -0.4032  0.3089
    3TYR    SC2  309   1.552   2.867   3.517 -0.2059 -0.4300  0.3201
    3TYR    SC3  310   1.648   2.630   3.432  0.2005 -0.2380  0.2143
    1TYR     BB  311   4.691   3.496   3.037 -0.2019 -0.1826  0.0622
    1TYR    SC1  312   4.738   3.697   2.747 -0.3068 -0.3141 -0.2020
    1TYR    SC2  313   4.768   3.859   2.533  0.1117  0.0428  0.1027
    1TYR    SC3  314   4.526   3.834   2.652 -0.0631  0.0566 -0.2357
    2ILE     BB  315   4.747   3.742   3.224  0.0991 -0.3226  0.1395
    2ILE    SC1  316   4.929   3.685   3.468  0.0944  0.0979  0.2498
    3TYR     BB  317   4.706   4.068   3.154 -0.0760  0.0967  0.1553
    3TYR    SC1  318   4.629   4.174   2.900 -0.1631 -0.1414  0.0219
    3TYR    SC2  319   4.405   4.271   2.785 -0.1301 -0.2202 -0.1120
    3TYR    SC3  320   4.639   4.278   2.652 -0.0973 -0.3414 -0.0621
    1TYR     BB  321   2.082   2.867   2.827  0.0359  0.3062  0.1238
    1TYR    SC1  322   2.020   3.074   2.663 -0.0101 -0.1637  0.0292
    1TYR    SC2  323   1.896   3.149   2.434  0.1027  0.0550  0.0359
    1TYR    SC3  324   2.105   3.293   2.529 -0.0370  0.0571  0.3568
    2ILE     BB  325   2.039   2.546   2.927  0.1419 -0.2525 -0.0888
    2ILE    SC1  326   1.900   2.453   2.666  0.0593 -0.3833  0.0003
    3TYR     BB  327   1.920   2.307   3.180 -0.2198  0.0738  0.2913
    3TYR    SC1  328   2.186   2.130   3.147  0.3214  0.1175  0.0042
    3TYR    SC2  329   2.295   1.911   3.260 -0.0658 -0.0594  0.0525
    3TYR    SC3  330   2.367   1.983   3.011  0.2534 -0.0890  0.1309
    1TYR     BB  331   7.637   4.257   3.760 -0.0457  0.0406 -0.1633
    1TYR    SC1  332   7.490   4.129   3.968  0.0763  0.1172  0.1158
    1TYR    SC2  333   7.338   3.931   4.071 -0.1520  0.1342 -0.1733
    1TYR    SC3  334   7.575   3.991   4.185 -0.1170 -0.2414 -0.0255
    2ILE     BB  335   7.941   4.242   3.812 -0.2601 -0.2977 -0.0224
    2ILE    SC1  336   8.029   4.012   3.999 -0.0092 -0.2564 -0.0854
    3TYR     BB  337   8.095   4.357   3.544 -0.1056 -0.2590  0.3251
    3TYR    SC1  338   7.987   4.267   3.255 -0.1305  0.3000 -0.0734
    3TYR    SC2  339   7.850   4.306   3.026  0.0044 -0.0528 -0.2231
    3TYR    SC3  340   7.904   4.055   3.109  0.1011  0.0733  0.1125
    1TYR     BB  341  -0.385   4.032   3.606  0.1379 -0.1496  0.0461
    1TYR    SC1  342  -0.313   4.204   3.378  0.0072 -0.0641  0.0622
    1TYR    SC2  343  -0.395   4.410   3.224  0.1633  0.0690  0.1538
    1TYR    SC3  344  -0.132   4.371   3.269  0.1479 -0.2569 -0.0055
    2ILE     BB  345  -0.219   3.787   3.600  0.2676 -0.0211 -0.1372
    2ILE    SC1  346  -0.158   3.720   3.895 -0.0529  0.0081 -0.0595
    3TYR     BB  347  -0.176   3.524   3.361  0.1958 -0.1065  0.1530
    3TYR    SC1  348  -0.138   3.730   3.138 -0.0466 -0.0638  0.2533
    3TYR    SC2  349  -0.174   3.937   2.969  0.3349 -0.2826 -0.1206
    3TYR    SC3  350  -0.011   3.964   3.183  0.1533 -0.1171  0.0002
    1TYR     BB  351   8.488   4.939   4.179 -0.0280  0.0504  0.1604
    1TYR    SC1  352   8.243   5.107   4.050 -0.1123  0.0492  0.0536
    1TYR    SC2  353   8.184   5.286   3.857  0.0573 -0.0459 -0.0900
    1TYR    SC3  354   8.065   5.303   4.098 -0.1236  0.1024 -0.1870
    2ILE     BB  355   8.675   4.794   3.975  0.0340  0.3411  0.3120
    2ILE    SC1  356   8.926   4.692   4.124 -0.1556 -0.2448  0.2662
    3TYR     BB  357   8.846   4.872   3.692  0.1385 -0.1155  0.2806
    3TYR    SC1  358   9.140   4.856   3.664 -0.0025  0.0175  0.0256
    3TYR    SC2  359   9.392   4.846   3.760  0.0620 -0.1123 -0.1508
    3TYR    SC3  360   9.351   4.875   3.494 -0.0992 -0.5160 -0.1787
    1TYR     BB  361   0.249   3.842   5.344 -0.1675  0.1816 -0.2067
    1TYR    SC1  362   0.381   3.903   5.626  0.0197  0.0258 -0.2163
    1TYR    SC2  363   0.517   3.971   5.850 -0.4563  0.1079  0.0637
    1TYR    SC3  364   0.451   4.160   5.668 -0.1694  0.0599 -0.0979
    2ILE     BB  365   0.166   3.544   5.279 -0.0453  0.3258 -0.0975
    2ILE    SC1  366   0.085   3.346   5.504 -0.2018  0.3631 -0.1193
    3TYR     BB  367   0.352   3.333   5.072 -0.1831 -0.2061 -0.3241
    3TYR    SC1  368   0.406   3.090   5.227  0.2191 -0.0576  0.0361
    3TYR    SC2  369   0.448   2.988   5.474  0.1527 -0.0825  0.0375
    3TYR    SC3  370   0.232   2.912   5.331 -0.1303  0.3604  0.2038
    1TYR     BB  371   1.223   5.327   4.307  0.1651 -0.1171  0.0075
    1TYR    SC1  372   1.154   5.036   4.426 -0.0143 -0.2233  0.2356
    1TYR    SC2  373   1.069   4.867   4.619 -0.3710 -0.1826  0.1222
    1TYR    SC3  374   1.086   4.782   4.363  0.3397 -0.3139  0.1856
    2ILE     BB  375   1.215   5.557   4.546 -0.1558 -0.0830  0.0724
    2ILE    SC1  376   1.290   5.415   4.810  0.1418 -0.0738 -0.0028
    3TYR     BB  377   1.044   5.821   4.504  0.2496 -0.0383  0.2878
    3TYR    SC1  378   1.190   6.073   4.381 -0.0258  0.0171 -0.0031
    3TYR    SC2  379   1.153   6.328   4.460  0.2381  0.0375  0.0647
    3TYR    SC3  380   1.285   6.274   4.230  0.3115 -0.0393  0.1241
    1TYR     BB  381   3.177   4.239   5.146  0.2381  0.3701  0.1079
    1TYR    SC1  382   3.178   4.441   4.909 -0.2198 -0.1980  0.0554
    1TYR    SC2  383   3.163   4.567   4.671  0.0289 -0.1307  0.0715
    1TYR    SC3  384   3.011   4.652   4.878 -0.1515 -0.1579 -0.0461
    2ILE     BB  385   2.936   4.067   5.254  0.0805  0.2405 -0.1789
    2ILE    SC1  386   2.945   4.079   5.563  0.1728  0.0980 -0.1753
    3TYR     BB  387   2.779   3.908   5.133 -0.2579  0.0736 -0.3127
    3TYR    SC1  388   2.576   3.749   5.283  0.0629  0.0371 -0.0600
    3TYR    SC2  389   2.334   3.725   5.400  0.1019  0.4821  0.1394
    3TYR    SC3  390   2.559   3.677   5.541  0.1503 -0.2009 -0.1169
    1TYR     BB  391   2.697   4.752   3.027  0.3706 -0.1262  0.2197
    1TYR    SC1  392   2.743   4.826   2.757 -0.3177  0.0649 -0.3025
    1TYR    SC2  393   2.751   4.779   2.491  0.3287 -0.5074 -0.2149
    1TYR    SC3  394   2.976   4.853   2.623 -0.0147 -0.0676  0.1646
    2ILE     BB  395   2.466   4.952   3.116  0.1426 -0.2888 -0.0602
    2ILE    SC1  396   2.268   5.007   3.348 -0.2360  0.1570 -0.4626
    3TYR     BB  397   2.518   5.209   2.987 -0.1020  0.0152  0.2165
    3TYR    SC1  398   2.521   5.217   2.701 -0.1963 -0.2506 -0.1601
    3TYR    SC2  399   2.616   5.193   2.450 -0.3075  0.1795 -0.2540
    3TYR    SC3  400   2.365   5.283   2.490 -0.2459  0.2400  0.0125
    1TYR     BB  401   3.798   4.222   4.320 -0.1196 -0.0442  0.0063
    1TYR    SC1  402   3.932   4.265   4.608  0.1080 -0.1701  0.0432
    1TYR    SC2  403   4.074   4.343   4.825  0.1132 -0.1706  0.0400
    1TYR    SC3  404   4.038   4.080   4.773  0.1324 -0.1707  0.0268
    2ILE     BB  405   3.834   3.840   4.355 -0.2430  0.0037 -0.0630
    2ILE    SC1  406   4.079   3.838   4.164 -0.0683 -0.2909  0.1543
    3TYR     BB  407   3.661   3.691   4.583 -0.2642 -0.1149  0.1744
    3TYR    SC1  408   3.741   3.685   4.886  0.0851  0.0936 -0.0956
    3TYR    SC2  409   3.593   3.656   5.109  0.1273 -0.5004 -0.1238
    3TYR    SC3  410   3.841   3.758   5.126 -0.0729  0.0055  0.0003
    1TYR     BB  411   2.287   3.225   4.448 -0.0439  0.0670 -0.1601
    1TYR    SC1  412   2.051   3.267   4.218  0.0655  0.6326  0.1720
    1TYR    SC2  413   1.977   3.281   3.959 -0.0611 -0.0725  0.1459
    1TYR    SC3  414   1.798   3.336   4.153 -0.0373  0.2158  0.0908
    2ILE     BB  415   2.259   2.853   4.355 -0.0108  0.1267  0.0168
    2ILE    SC1  416   2.181   2.619   4.545  0.0864 -0.1230 -0.2412
    3TYR     BB  417   2.345   2.643   4.070 -0.4298 -0.1856  0.1669
    3TYR    SC1  418   2.277   2.542   3.777  0.2786  0.0836  0.1241
    3TYR    SC2  419   2.329   2.475   3.520  0.4145 -0.0567  0.1861
    3TYR    SC3  420   2.077   2.533   3.597  0.4166  0.3058 -0.0483
    1TYR     BB  421   1.365   4.693   3.091  0.0322 -0.1481  0.0150
    1TYR    SC1  422   1.107   4.637   3.204  0.1269  0.2260  0.0591
    1TYR    SC2  423   1.082   4.457   3.403  0.0818 -0.0812 -0.2119
    1TYR    SC3  424   0.874   4.617   3.338  0.2324  0.3443  0.2657
    2ILE     BB  425   1.332   4.836   2.822 -0.3017 -0.0754 -0.0078
    2ILE    SC1  426   1.373   5.109   2.680 -0.4151 -0.1037 -0.0965
    3TYR     BB  427   1.159   4.656   2.602  0.1896 -0.1579  0.2503
    3TYR    SC1  428   0.897   4.563   2.750  0.0763 -0.2429  0.1592
    3TYR    SC2  429   0.630   4.546   2.723  0.0670  0.0871 -0.0208
    3TYR    SC3  430   0.735   4.644   2.949  0.0242  0.1855 -0.0430
    1TYR     BB  431   1.874   5.286   2.635 -0.2737 -0.0419  0.1684
    1TYR    SC1  432   1.806   5.071   2.403 -0.4669  0.1166  0.2619
    1TYR    SC2  433   1.699   4.823   2.389 -0.5543  0.1644  0.0207
    1TYR    SC3  434   1.715   4.977   2.167 -0.0995  0.2092  0.0719
    2ILE     BB  435   2.023   5.157   2.910  0.1478  0.1519  0.1586
    2ILE    SC1  436   1.816   4.927   2.930  0.0804  0.2105  0.1401
    3TYR     BB  437   2.116   5.438   3.086  0.1300  0.3785 -0.0581
    3TYR    SC1  438   1.853   5.599   3.067 -0.0084  0.0276 -0.3720
    3TYR    SC2  439   1.659   5.637   2.883 -0.0434  0.1289 -0.3156
    3TYR    SC3  440   1.671   5.797   3.100 -0.0842 -0.0727 -0.1612
    1TYR     BB  441   2.836   4.291   2.407  0.2978 -0.0331 -0.2577
    1TYR    SC1  442   3.052   4.398   2.591  0.0530 -0.0902 -0.1377
    1TYR    SC2  443   3.082   4.491   2.842 -0.3438  0.1401 -0.1664
    1TYR    SC3  444   3.297   4.464   2.682 -0.1152  0.2099  0.1189
    2ILE     BB  445   2.437   4.267   2.574 -0.0445  0.0665  0.0825
    2ILE    SC1  446   2.616   4.241   2.825 -0.2123  0.0553  0.2030
    3TYR     BB  447   2.136   4.168   2.649 -0.3433  0.0852 -0.0280
    3TYR    SC1  448   1.982   4.242   2.377 -0.1632 -0.0644  0.1010
    3TYR    SC2  449   1.841   4.162   2.160  0.3027 -0.0057 -0.2414
    3TYR    SC3  450   1.883   4.426   2.204  0.1693 -0.0148 -0.0456
    1TYR     BB  451   4.526   3.403   3.542 -0.1966  0.1166  0.4281
    1TYR    SC1  452   4.584   3.597   3.762  0.4118 -0.2524 -0.2685
    1TYR    SC2  453   4.758   3.703   3.941  0.0467 -0.2101  0.0794
    1TYR    SC3  454   4.504   3.795   3.929 -0.0110 -0.3944 -0.2889
    2ILE     BB  455   4.355   3.155   3.771 -0.0445 -0.0505  0.2753
    2ILE    SC1  456   4.123   3.355   3.820 -0.0616 -0.0129  0.0469
    3TYR     BB  457   4.277   2.901   3.673 -0.1436 -0.1382  0.1542
    3TYR    SC1  458   4.529   2.768   3.547 -0.0949 -0.0943 -0.0837
    3TYR    SC2  459   4.731   2.650   3.411 -0.1646 -0.0414 -0.2360
    3TYR    SC3  460   4.668   2.567   3.661  0.1954  0.0952 -0.0931
    1TYR     BB  461   1.581   3.712   3.284 -0.3964  0.0502 -0.0777
    1TYR    SC1  462   1.605   3.522   3.560  0.0493  0.0361 -0.1424
    1TYR    SC2  463   1.569   3.468   3.823  0.3912  0.3540 -0.0194
    1TYR    SC3  464   1.630   3.269   3.651  0.0714  0.1276  0.1182
    2ILE     BB  465   1.486   3.793   2.976  0.1485  0.0003  0.1531
    2ILE    SC1  466   1.194   3.735   2.892  0.1431  0.1189  0.0868
    3TYR     BB  467   1.751   3.838   2.728  0.3259  0.1011  0.1853
    3TYR    SC1  468   1.554   3.812   2.484 -0.1644 -0.2064  0.2629
    3TYR    SC2  469   1.491   3.844   2.223 -0.0399 -0.0418  0.2513
    3TYR    SC3  470   1.295   3.841   2.410 -0.1053  0.2038  0.1917
    1TYR     BB  471   2.924   4.614   5.391  0.1886 -0.2887  0.0488
    1TYR    SC1  472   2.712   4.514   5.184 -0.1413 -0.1435  0.1241
    1TYR    SC2  473   2.557   4.650   5.009  0.1844 -0.0974 -0.1381
    1TYR    SC3  474   2.610   4.387   4.969 -0.2954 -0.2770  0.2711
    2ILE     BB  475   2.739   4.870   5.506 -0.2018  0.1281  0.1664
    2ILE    SC1  476   2.825   5.165   5.475  0.1656  0.0371  0.2692
    3TYR     BB  477   2.391   4.876   5.413  0.0803 -0.0550  0.0148
    3TYR    SC1  478   2.293   5.148   5.343 -0.0090 -0.0960  0.3015
    3TYR    SC2  479   2.402   5.392   5.385 -0.2660  0.0449  0.1738
    3TYR    SC3  480   2.134   5.363   5.374 -0.2376 -0.2019 -0.0488
    1TYR     BB  481   2.546   2.975   3.506  0.4445 -0.0637  0.0896
    1TYR    SC1  482   2.425   3.162   3.282  0.0204 -0.1473 -0.2708
    1TYR    SC2  483   2.373   3.254   3.034  0.1192  0.0310 -0.2274
    1TYR    SC3  484   2.323   3.409   3.249  0.5822  0.1173 -0.1696
    2ILE     BB  485   2.864   2.944   3.422  0.2637  0.1394 -0.0544
    2ILE    SC1  486   3.043   2.889   3.669  0.0585 -0.1121  0.0444
    3TYR     BB  487   2.871   3.002   3.104 -0.2756  0.0928 -0.1351
    3TYR    SC1  488   3.027   2.810   2.972  0.1989 -0.1441  0.4736
    3TYR    SC2  489   3.155   2.576   2.934  0.1385 -0.0798 -0.3684
    3TYR    SC3  490   3.247   2.800   2.816 -0.2973  0.1379 -0.3181
    1TYR     BB  491   5.654   5.028   3.336  0.0930 -0.3598  0.1284
    1TYR    SC1  492   5.758   5.071   3.019 -0.1201 -0.0541 -0.0675
    1TYR    SC2  493   5.697   5.187   2.782 -0.1749 -0.0685 -0.0603
    1TYR    SC3  494   5.951   5.111   2.832 -0.1324  0.0753 -0.0536
    2ILE     BB  495   5.344   5.100   3.366 -0.0117 -0.1457  0.1434
    2ILE    SC1  496   5.320   5.403   3.427 -0.0193 -0.1670  0.2486
    3TYR     BB  497   5.094   4.955   3.266 -0.4683  0.1850 -0.0752
    3TYR    SC1  498   5.092   5.059   2.963  0.1790 -0.0141 -0.1664
    3TYR    SC2  499   5.220   5.160   2.747  0.1463  0.4181  0.0033
    3TYR    SC3  500   4.984   5.264   2.824 -0.1494 -0.1286 -0.0902
    1TYR     BB  501   0.156   4.701   3.594  0.1805 -0.1249 -0.1757
    1TYR    SC1  502   0.217   4.403   3.698 -0.2582  0.2589  0.2432
    1TYR    SC2  503   0.121   4.164   3.616  0.1432  0.1177  0.1554
    1TYR    SC3  504   0.234   4.187   3.859  0.2032  0.1926  0.1208
    2ILE     BB  505   0.363   4.641   3.300 -0.3309  0.0971 -0.1862
    2ILE    SC1  506   0.280   4.787   3.039  0.0652  0.1991 -0.2639
    3TYR     BB  507   0.428   4.344   3.236  0.0845 -0.0158 -0.1497
    3TYR    SC1  508   0.695   4.228   3.066 -0.0174 -0.0774  0.4854
    3TYR    SC2  509   0.963   4.253   3.048 -0.0298 -0.1107  0.1400
    3TYR    SC3  510   0.836   4.072   2.895 -0.3061  0.3110 -0.1555
    1TYR     BB  511   8.845   5.170   4.506  0.1978  0.2393 -0.2027
    1TYR    SC1  512   8.932   5.196   4.838  0.0040 -0.0375  0.2014
    1TYR    SC2  513   9.045   5.299   5.062 -0.1623  0.2558  0.1569
    1TYR    SC3  514   8.811   5.399   4.969 -0.0543  0.1992 -0.1980
    2ILE     BB  515   8.522   5.365   4.512  0.2133 -0.0465 -0.5408
    2ILE    SC1  516   8.404   5.185   4.735  0.2686  0.2712 -0.2455
    3TYR     BB  517   8.327   5.620   4.412  0.0569  0.0690 -0.4171
    3TYR    SC1  518   8.384   5.780   4.183 -0.2243 -0.0339 -0.0713
    3TYR    SC2  519   8.302   5.776   3.926 -0.0098  0.2523 -0.1501
    3TYR    SC3  520   8.334   6.012   4.056 -0.2757  0.1081  0.1985
    1TYR     BB  521   5.988   4.165   3.606  0.1538 -0.1545  0.2710
    1TYR    SC1  522   6.147   4.132   3.316 -0.2959 -0.3365  0.0909
    1TYR    SC2  523   6.243   4.076   3.070  0.1249 -0.1925  0.2117
    1TYR    SC3  524   6.402   4.192   3.255 -0.3146  0.1441  0.4064
    2ILE     BB  525   5.827   4.476   3.560  0.1543  0.2040  0.1993
    2ILE    SC1  526   5.950   4.649   3.334  0.2562 -0.2855 -0.1373
    3TYR     BB  527   5.499   4.605   3.520  0.1032  0.0496  0.2030
    3TYR    SC1  528   5.475   4.798   3.780  0.0193 -0.2562  0.2201
    3TYR    SC2  529   5.374   5.037   3.857  0.0881 -0.0730 -0.2307
    3TYR    SC3  530   5.558   4.915   4.011 -0.0562  0.0879  0.0810
    1TYR     BB  531  -0.634   3.577   3.213  0.1538 -0.0281 -0.3826
    1TYR    SC1  532  -0.780   3.342   3.340 -0.0242 -0.0248  0.2951
    1TYR    SC2  533  -0.864   3.123   3.476 -0.0676 -0.1023  0.1466
    1TYR    SC3  534  -1.038   3.263   3.325  0.0532 -0.2288 -0.1171
    2ILE     BB  535  -0.760   3.871   3.374 -0.1849 -0.1614 -0.1702
    2ILE    SC1  536  -1.063   3.806   3.381 -0.2524  0.1509  0.0841
    3TYR     BB  537  -0.713   4.075   3.103  0.2459  0.1227 -0.1017
    3TYR    SC1  538  -0.979   4.035   2.914 -0.0207 -0.0724 -0.0944
    3TYR    SC2  539  -1.244   3.988   2.942 -0.0107 -0.0633  0.0247
    3TYR    SC3  540  -1.131   3.988   2.696 -0.1321 -0.0067 -0.0318
    1TYR     BB  541   2.883   3.397   4.101  0.1242 -0.0389  0.1668
    1TYR    SC1  542   3.070   3.173   4.145 -0.0520  0.0038  0.0567
    1TYR    SC2  543   3.287   3.022   4.094  0.0676  0.1901 -0.0013
    1TYR    SC3  544   3.234   3.099   4.346  0.0026  0.0504  0.0295
    2ILE     BB  545   2.598   3.346   4.049  0.3355  0.0361  0.1797
    2ILE    SC1  546   2.533   3.051   3.981 -0.1888  0.1572  0.1019
    3TYR     BB  547   2.406   3.570   3.958 -0.2424 -0.0690 -0.1013
    3TYR    SC1  548   2.274   3.602   3.708 -0.3511 -0.1187  0.2571
    3TYR    SC2  549   2.043   3.532   3.585 -0.1356 -0.1355 -0.1642
    3TYR    SC3  550   2.171   3.758   3.512  0.0587 -0.2014 -0.0371
    1TYR     BB  551   7.321   5.118   3.917 -0.0394 -0.0253 -0.3183
    1TYR    SC1  552   7.397   4.886   3.736  0.2909  0.0647 -0.2781
    1TYR    SC2  553   7.213   4.807   3.555 -0.0135 -0.0190  0.0538
    1TYR    SC3  554   7.472   4.733   3.526 -0.0460 -0.0016 -0.3561
    2ILE     BB  555   7.505   5.313   4.147  0.0867 -0.2111  0.1447
    2ILE    SC1  556   7.651   5.502   3.951  0.0130 -0.3081 -0.0055
    3TYR     BB  557   7.614   5.354   4.431  0.1147  0.1757 -0.1485
    3TYR    SC1  558   7.840   5.074   4.477  0.1569  0.0245 -0.0224
    3TYR    SC2  559   8.074   4.946   4.442  0.0136 -0.2613  0.0384
    3TYR    SC3  560   7.969   4.971   4.689 -0.1094 -0.3008 -0.0087
    1TYR     BB  561   1.123   3.936   3.381  0.0423 -0.2034  0.0357
    1TYR    SC1  562   0.876   4.098   3.527  0.2233 -0.3336  0.2854
    1TYR    SC2  563   0.765   4.316   3.643  0.0628 -0.1745 -0.1442
    1TYR    SC3  564   0.636   4.080   3.651  0.1229 -0.2033  0.1146
    2ILE     BB  565   1.433   4.025   3.621 -0.0043 -0.0432  0.0220
    2ILE    SC1  566   1.341   4.275   3.780 -0.0491  0.1031 -0.2276
    3TYR     BB  567   1.743   4.066   3.606 -0.0046  0.1158  0.2601
    3TYR    SC1  568   1.826   4.357   3.620 -0.1732  0.1971 -0.0077
    3TYR    SC2  569   1.878   4.575   3.471 -0.0820  0.2317  0.0736
    3TYR    SC3  570   1.962   4.564   3.728 -0.0443  0.0817  0.0557
    1TYR     BB  571   1.336   2.962   4.906 -0.1264  0.0738 -0.0213
    1TYR    SC1  572   1.464   2.997   5.158 -0.0249  0.2079 -0.4369
    1TYR    SC2  573   1.695   3.003   5.298 -0.3664 -0.3664  0.2305
    1TYR    SC3  574   1.508   3.194   5.337 -0.0341  0.1106 -0.3252
    2ILE     BB  575   1.112   2.820   4.824 -0.1207 -0.2495 -0.1657
    2ILE    SC1  576   0.805   2.859   4.803 -0.1086  0.0064  0.0485
    3TYR     BB  577   1.221   2.491   4.858  0.0087 -0.0541  0.1795
    3TYR    SC1  578   1.506   2.519   4.977 -0.1474 -0.2256  0.2626
    3TYR    SC2  579   1.667   2.510   5.194 -0.0123 -0.0617  0.1724
    3TYR    SC3  580   1.770   2.569   4.952 -0.1694 -0.2008  0.0686
    1TYR     BB  581   0.642   4.776   3.679  0.1726 -0.1766 -0.1486
    1TYR    SC1  582   0.524   5.027   3.593  0.1614 -0.0797  0.1574
    1TYR    SC2  583   0.368   5.199   3.455  0.0719 -0.2170  0.0844
    1TYR    SC3  584   0.577   5.292   3.600 -0.0323 -0.0384  0.1235
    2ILE     BB  585   0.883   4.911   3.938  0.2220 -0.0315  0.0797
    2ILE    SC1  586   1.087   4.697   3.844  0.2729  0.0266  0.0569
    3TYR     BB  587   0.882   5.107   3.989 -0.3283  0.1650  0.1299
    3TYR    SC1  588   0.835   5.385   3.998 -0.2184 -0.2309  0.0064
    3TYR    SC2  589   0.741   5.562   4.178  0.0246 -0.2021  0.1096
    3TYR    SC3  590   0.694   5.600   3.914  0.4343  0.2664  0.0860
    1TYR     BB  591   3.852   2.297   3.877  0.4616  0.5430 -0.3836
    1TYR    SC1  592   3.582   2.380   3.825  0.0565  0.1092  0.0326
    1TYR    SC2  593   3.430   2.594   3.889 -0.0583  0.0761 -0.1227
    1TYR    SC3  594   3.313   2.363   3.813  0.0690  0.0377 -0.2061
    2ILE     BB  595   4.090   2.436   3.775 -0.0102 -0.0025  0.1257
    2ILE    SC1  596   4.268   2.535   4.010 -0.0248 -0.0991  0.1784
    3TYR     BB  597   4.259   2.333   3.526  0.0211 -0.1837  0.2581
    3TYR    SC1  598   4.257   2.573   3.294  0.3782  0.3339 -0.1249
    3TYR    SC2  599   4.156   2.709   3.084  0.4110  0.0266 -0.3479
    3TYR    SC3  600   4.404   2.603   3.068  0.4185  0.0109 -0.1473
    1TYR     BB  601   3.834   2.569   4.278  0.2070  0.0536 -0.0631
    1TYR    SC1  602   3.997   2.346   4.343 -0.0514  0.1030 -0.0211
    1TYR    SC2  603   4.221   2.270   4.471 -0.1613  0.2007  0.2368
    1TYR    SC3  604   4.018   2.095   4.437 -0.0358  0.0996 -0.0335
    2ILE     BB  605   3.949   2.853   4.478  0.0225  0.0657  0.1171
    2ILE    SC1  606   4.172   2.942   4.282  0.1834 -0.3698  0.0875
    3TYR     BB  607   4.039   2.767   4.838  0.1186 -0.0278  0.3935
    3TYR    SC1  608   3.953   3.061   4.914  0.0843  0.1134  0.1841
    3TYR    SC2  609   3.860   3.289   5.023  0.1417  0.0948  0.2732
    3TYR    SC3  610   3.906   3.276   4.757  0.3867  0.2734  0.3021
    1TYR     BB  611   3.449   4.291   3.217  0.0034  0.0769  0.2430
    1TYR    SC1  612   3.662   4.381   3.038 -0.0251  0.1485 -0.0145
    1TYR    SC2  613   3.790   4.561   2.884 -0.1017  0.1595 -0.0660
    1TYR    SC3  614   3.901   4.319   2.930 -0.1531  0.0944 -0.2726
    2ILE     BB  615   3.317   4.004   3.275  0.0897  0.4125  0.3207
    2ILE    SC1  616   3.296   3.879   3.558 -0.0430 -0.1437  0.0829
    3TYR     BB  617   3.029   4.024   3.103  0.0402  0.3026 -0.0095
    3TYR    SC1  618   3.090   3.969   2.850 -0.0399 -0.1959 -0.2632
    3TYR    SC2  619   3.233   4.001   2.623 -0.1588  0.1152 -0.3009
    3TYR    SC3  620   3.150   3.755   2.698  0.1432 -0.0318 -0.4293
    1TYR     BB  621   2.470   2.715   3.098 -0.0712 -0.1704 -0.0271
    1TYR    SC1  622   2.566   2.781   2.784 -0.0069 -0.2905  0.1339
    1TYR    SC2  623   2.724   2.774   2.565  0.2475 -0.3104  0.3123
    1TYR    SC3  624   2.484   2.898   2.555  0.2842 -0.2527  0.0437
    2ILE     BB  625   2.697   2.450   3.191  0.2209 -0.5664  0.0614
    2ILE    SC1  626   2.707   2.327   2.906  0.0523  0.0439 -0.2307
    3TYR     BB  627   2.890   2.460   3.403 -0.1141 -0.1055 -0.5087
    3TYR    SC1  628   3.159   2.378   3.367 -0.1646  0.3461 -0.0207
    3TYR    SC2  629   3.414   2.465   3.342 -0.1566  0.2469 -0.3484
    3TYR    SC3  630   3.351   2.211   3.277 -0.3412  0.2699 -0.2687
    1TYR     BB  631   3.924   3.225   3.454  0.1552  0.2062  0.1204
    1TYR    SC1  632   4.166   3.183   3.245  0.0790 -0.0104 -0.3735
    1TYR    SC2  633   4.271   3.153   2.997  0.1468  0.0057 -0.3472
    1TYR    SC3  634   4.410   3.069   3.213  0.2102  0.2373 -0.2940
    2ILE     BB  635   3.789   3.001   3.577 -0.1617  0.0505 -0.2345
    2ILE    SC1  636   3.824   2.728   3.435  0.1056  0.0731 -0.2180
    3TYR     BB  637   3.811   2.906   3.917  0.0237 -0.1187 -0.3108
    3TYR    SC1  638   3.764   3.129   4.109 -0.1513 -0.1314  0.0483
    3TYR    SC2  639   3.639   3.214   4.331 -0.0578  0.1420  0.0001
    3TYR    SC3  640   3.877   3.321   4.261 -0.2247  0.2819 -0.3889
    1TYR     BB  641   4.511   4.197   3.617  0.2647 -0.1164 -0.0852
    1TYR    SC1  642   4.541   4.435   3.438 -0.2572  0.3114 -0.0623
    1TYR    SC2  643   4.611   4.683   3.355 -0.4621  0.3648 -0.0833
    1TYR    SC3  644   4.526   4.499   3.175  0.4584 -0.0035 -0.2080
    2ILE     BB  645   4.319   3.923   3.490 -0.2188 -0.0750 -0.2691
    2ILE    SC1  646   4.107   3.818   3.690  0.0944 -0.2260 -0.0041
    3TYR     BB  647   4.239   3.986   3.221  0.4813  0.1880  0.2688
    3TYR    SC1  648   4.154   3.758   3.043  0.2190 -0.1406  0.1056
    3TYR    SC2  649   4.247   3.595   2.848 -0.2631  0.2197 -0.4741
    3TYR    SC3  650   4.022   3.531   2.984  0.0281  0.0087 -0.0584
    1TYR     BB  651   7.733   5.204   3.531  0.2681 -0.1524 -0.0885
    1TYR    SC1  652   7.897   5.487   3.502 -0.0536  0.3936  0.0036
    1TYR    SC2  653   8.055   5.705   3.503  0.2898  0.1802 -0.6040
    1TYR    SC3  654   7.830   5.702   3.354 -0.1388  0.3621 -0.0045
    2ILE     BB  655   7.411   5.291   3.413 -0.3159 -0.0124  0.1140
    2ILE    SC1  656   7.346   5.568   3.536 -0.0736  0.0894  0.0197
    3TYR     BB  657   7.322   5.141   3.186  0.0944  0.0838  0.1145
    3TYR    SC1  658   7.019   5.093   3.133 -0.0191  0.0469  0.3802
    3TYR    SC2  659   6.848   4.967   2.966  0.1667  0.2685  0.0022
    3TYR    SC3  660   6.761   5.170   3.121 -0.1098 -0.2155  0.5329
    1TYR     BB  661   1.586   2.391   3.870 -0.0464  0.1158 -0.1095
    1TYR    SC1  662   1.446   2.254   3.626  0.0065 -0.2836  0.1194
    1TYR    SC2  663   1.386   2.066   3.442 -0.1325 -0.0284 -0.1054
    1TYR    SC3  664   1.299   2.320   3.410 -0.1122  0.0370  0.2882
    2ILE     BB  665   1.802   2.234   3.919  0.2569 -0.3564  0.2269
    2ILE    SC1  666   1.902   2.043   3.698 -0.1037 -0.3148  0.0191
    3TYR     BB  667   1.988   2.264   4.240 -0.2482 -0.2529  0.1330
    3TYR    SC1  668   2.250   2.165   4.302  0.2011 -0.1167  0.0718
    3TYR    SC2  669   2.488   2.276   4.364  0.1340 -0.0868  0.2860
    3TYR    SC3  670   2.479   2.052   4.213  0.2909 -0.0318  0.1918
    1TYR     BB  671   5.277   3.927   3.233 -0.1976 -0.1113  0.1666
    1TYR    SC1  672   5.280   3.977   2.907  0.2432  0.0107 -0.3272
    1TYR    SC2  673   5.249   3.926   2.643 -0.0817 -0.1574 -0.2637
    1TYR    SC3  674   5.075   4.089   2.773 -0.1615 -0.3845 -0.0765
    2ILE     BB  675   5.459   4.159   3.318 -0.1770 -0.0230 -0.2014
    2ILE    SC1  676   5.540   4.093   3.609  0.2375  0.0966 -0.2805
    3TYR     BB  677   5.697   4.232   3.161  0.3500 -0.0061  0.0818
    3TYR    SC1  678   5.758   4.061   2.930 -0.2906 -0.0742 -0.1296
    3TYR    SC2  679   5.919   3.855   2.864  0.1674  0.3200 -0.3269
    3TYR    SC3  680   5.705   3.913   2.711  0.0242 -0.0037 -0.2611
    1TYR     BB  681   2.407   4.016   4.697 -0.0195  0.1078  0.1102
    1TYR    SC1  682   2.559   3.822   4.623  0.0563 -0.0261  0.1229
    1TYR    SC2  683   2.589   3.681   4.394  0.4463  0.1206  0.0737
    1TYR    SC3  684   2.755   3.638   4.603  0.1729  0.0757  0.2903
    2ILE     BB  685   2.059   3.901   4.612  0.1624  0.0070  0.0832
    2ILE    SC1  686   2.104   3.691   4.390 -0.1253 -0.1258  0.1454
    3TYR     BB  687   1.825   4.026   4.772  0.0450  0.0450 -0.0724
    3TYR    SC1  688   1.701   4.135   5.048  0.2669 -0.0147 -0.1431
    3TYR    SC2  689   1.646   4.380   5.147  0.4034 -0.0604  0.0523
    3TYR    SC3  690   1.535   4.160   5.258 -0.0758 -0.0717 -0.3918
    1TYR     BB  691   1.737   2.902   4.519 -0.0062 -0.1145  0.1070
    1TYR    SC1  692   1.582   2.639   4.478  0.1319 -0.1963  0.1698
    1TYR    SC2  693   1.404   2.562   4.289  0.1104  0.0273  0.0958
    1TYR    SC3  694   1.550   2.378   4.420  0.0055 -0.1415 -0.0215
    2ILE     BB  695   1.779   3.072   4.681 -0.1357 -0.0784  0.1981
    2ILE    SC1  696   1.953   3.003   4.929 -0.1041  0.0396  0.2092
    3TYR     BB  697   1.848   3.443   4.650  0.2691 -0.0899  0.0431
    3TYR    SC1  698   1.663   3.531   4.832  0.1257  0.0249  0.2642
    3TYR    SC2  699   1.493   3.696   4.963 -0.2007 -0.1162  0.0376
    3TYR    SC3  700   1.441   3.431   4.952  0.1715 -0.2033  0.1655
    1TYR     BB  701   7.520   2.234   4.212 -0.0158 -0.2442  0.1156
    1TYR    SC1  702   7.244   2.188   4.107  0.0157 -0.0390 -0.5616
    1TYR    SC2  703   7.021   2.339   4.119 -0.0015 -0.0588  0.3786
    1TYR    SC3  704   7.030   2.122   3.958 -0.3915  0.2929 -0.1615
    2ILE     BB  705   7.760   2.368   4.007 -0.4210 -0.5472 -0.0305
    2ILE    SC1  706   7.638   2.288   3.733 -0.2761  0.2156 -0.3480
    3TYR     BB  707   7.805   2.680   3.968 -0.0552  0.0093  0.2338
    3TYR    SC1  708   7.703   2.940   3.877  0.1377 -0.2929 -0.4860
    3TYR    SC2  709   7.749   3.206   3.887  0.0185 -0.2770 -0.1594
    3TYR    SC3  710   7.563   3.106   3.719  0.0797 -0.1573 -0.2996
    1TYR     BB  711   2.424   5.063   4.732  0.2627  0.0673 -0.1840
    1TYR    SC1  712   2.609   5.147   4.942 -0.0205  0.3492 -0.4901
    1TYR    SC2  713   2.705   5.381   5.040 -0.0125 -0.0106  0.5126
    1TYR    SC3  714   2.868   5.166   5.020 -0.1167 -0.0596 -0.0144
    2ILE     BB  715   2.583   4.844   4.517  0.0766 -0.1196 -0.0342
    2ILE    SC1  716   2.858   4.986   4.524  0.0093  0.0039  0.2824
    3TYR     BB  717   2.616   4.508   4.430  0.1619  0.3074  0.2169
    3TYR    SC1  718   2.820   4.294   4.545 -0.1752 -0.2548 -0.0275
    3TYR    SC2  719   2.892   4.106   4.725 -0.4738 -0.3776 -0.0289
    3TYR    SC3  720   2.876   4.042   4.462 -0.0594 -0.2042 -0.1056
    1TYR     BB  721   6.415   3.688   3.336 -0.2387 -0.1658  0.1577
    1TYR    SC1  722   6.265   3.682   3.589 -0.0937 -0.1471 -0.1455
    1TYR    SC2  723   6.255   3.717   3.856  0.3308  0.1916 -0.1603
    1TYR    SC3  724   6.039   3.621   3.725  0.1715 -0.1538  0.3178
    2ILE     BB  725   6.236   3.543   3.086  0.1462 -0.2076  0.1049
    2ILE    SC1  726   6.143   3.307   3.264  0.0537 -0.2189  0.0433
    3TYR     BB  727   6.242   3.482   2.802  0.0615  0.0326  0.0996
    3TYR    SC1  728   6.241   3.642   2.574 -0.1117  0.1587  0.1767
    3TYR    SC2  729   6.093   3.769   2.386  0.1028  0.4980  0.2289
    3TYR    SC3  730   6.331   3.659   2.318 -0.0045  0.2638  0.2209
    1TYR     BB  731   7.490   2.858   3.046  0.0386 -0.4631  0.1422
    1TYR    SC1  732   7.602   2.847   3.314 -0.2456 -0.0292  0.1698
    1TYR    SC2  733   7.736   2.645   3.433 -0.2135 -0.0542  0.0923
    1TYR    SC3  734   7.840   2.893   3.433 -0.0123 -0.1313 -0.2337
    2ILE     BB  735   7.162   2.975   3.085  0.2130 -0.0260  0.1920
    2ILE    SC1  736   7.217   3.132   3.347 -0.0487  0.2655  0.0801
    3TYR     BB  737   6.998   2.722   3.101 -0.3664  0.1899 -0.1329
    3TYR    SC1  738   7.123   2.520   3.299 -0.1818  0.0519  0.3965
    3TYR    SC2  739   7.210   2.341   3.482  0.1598  0.0083  0.2013
    3TYR    SC3  740   7.371   2.413   3.276 -0.1667  0.1533 -0.0125
    1TYR     BB  741   1.047   3.451   5.321  0.2106  0.1929  0.1127
    1TYR    SC1  742   0.810   3.466   5.542 -0.2779  0.3037  0.0137
    1TYR    SC2  743   0.554   3.434   5.625 -0.1554 -0.0389  0.2947
    1TYR    SC3  744   0.758   3.385   5.795  0.1083 -0.2539 -0.0634
    2ILE     BB  745   0.927   3.213   5.135  0.0690  0.0838  0.0226
    2ILE    SC1  746   0.822   3.326   4.864 -0.3048 -0.3118 -0.0141
    3TYR     BB  747   0.902   2.963   5.269 -0.0001 -0.0176  0.0800
    3TYR    SC1  748   1.101   2.728   5.332 -0.0890 -0.0547  0.0234
    3TYR    SC2  749   1.223   2.495   5.399  0.0831 -0.0924 -0.3826
    3TYR    SC3  750   1.337   2.731   5.462 -0.1205 -0.1050  0.0825
    1TYR     BB  751   1.762   4.433   2.801 -0.1481 -0.1842  0.1421
    1TYR    SC1  752   1.558   4.323   2.623  0.1466  0.1073 -0.3549
    1TYR    SC2  753   1.335   4.180   2.672  0.1790  0.2211  0.2041
    1TYR    SC3  754   1.386   4.269   2.422 -0.3452  0.1112  0.0417
    2ILE     BB  755   1.766   4.206   3.044 -0.0031  0.1963  0.0805
    2ILE    SC1  756   1.492   4.239   3.184 -0.0198  0.2098  0.0450
    3TYR     BB  757   1.948   4.062   3.171 -0.2821 -0.4540 -0.0784
    3TYR    SC1  758   2.159   3.879   3.077 -0.0053 -0.0067  0.0657
    3TYR    SC2  759   2.417   3.806   3.045 -0.1428 -0.3985 -0.2575
    3TYR    SC3  760   2.233   3.737   2.860 -0.4522  0.0549 -0.1412
    1TYR     BB  761   2.180   4.159   5.142 -0.1215 -0.1340 -0.0591
    1TYR    SC1  762   2.398   4.178   5.371  0.3266  0.0639  0.1404
    1TYR    SC2  763   2.483   4.393   5.509  0.1524 -0.0038  0.3601
    1TYR    SC3  764   2.459   4.155   5.633  0.1366 -0.1014  0.1730
    2ILE     BB  765   2.093   4.466   4.972 -0.2147  0.0323  0.1680
    2ILE    SC1  766   2.135   4.393   4.674  0.1408 -0.0356  0.2299
    3TYR     BB  767   1.989   4.741   5.049  0.2992 -0.0008  0.1548
    3TYR    SC1  768   1.681   4.822   5.040 -0.1150 -0.1242  0.2647
    3TYR    SC2  769   1.507   4.981   4.909  0.1559 -0.0056  0.0369
    3TYR    SC3  770   1.529   4.999   5.177  0.0767  0.2361  0.0298
    1TYR     BB  771   1.994   4.859   4.580 -0.0274  0.0665  0.2192
    1TYR    SC1  772   1.711   4.720   4.553 -0.1555  0.0488  0.2732
    1TYR    SC2  773   1.453   4.644   4.546 -0.0178 -0.4498  0.0688
    1TYR    SC3  774   1.629   4.504   4.693  0.1723 -0.2201  0.0660
    2ILE     BB  775   2.005   5.198   4.477 -0.1006  0.0516  0.0967
    2ILE    SC1  776   1.728   5.326   4.534 -0.1600  0.0496 -0.1799
    3TYR     BB  777   2.274   5.226   4.280  0.1033 -0.1461  0.0964
    3TYR    SC1  778   2.296   5.423   4.033  0.4541 -0.5250 -0.7318
    3TYR    SC2  779   2.505   5.588   3.990  0.1831  0.1152  0.1005
    3TYR    SC3  780   2.253   5.684   3.976 -0.0170 -0.3785  0.1042
    1TYR     BB  781   2.813   3.403   5.065  0.2221 -0.3120  0.1053
    1TYR    SC1  782   2.947   3.475   5.285 -0.0595 -0.3021  0.0269
    1TYR    SC2  783   2.971   3.566   5.539 -0.0104  0.1316 -0.1226
    1TYR    SC3  784   3.153   3.636   5.352 -0.2827  0.1855 -0.3778
    2ILE     BB  785   2.515   3.369   4.929  0.0969  0.1966  0.1376
    2ILE    SC1  786   2.481   3.062   4.921 -0.0304  0.2139 -0.1404
    3TYR     BB  787   2.292   3.518   4.916  0.1658  0.1318  0.0328
    3TYR    SC1  788   2.059   3.539   5.068  0.0483 -0.1392 -0.1559
    3TYR    SC2  789   1.887   3.712   5.182  0.2994 -0.1060  0.1896
    3TYR    SC3  790   1.858   3.447   5.222  0.1071 -0.1299 -0.0734
    1TYR     BB  791   5.698   3.354   3.005 -0.1799  0.1731  0.1262
    1TYR    SC1  792   5.683   3.582   3.191 -0.0081 -0.3141  0.0357
    1TYR    SC2  793   5.853   3.757   3.305 -0.3986 -0.0078  0.1778
    1TYR    SC3  794   5.664   3.635   3.455 -0.4121 -0.2170 -0.0038
    2ILE     BB  795   5.764   3.400   2.678  0.1698 -0.0995 -0.6166
    2ILE    SC1  796   5.480   3.476   2.580 -0.1353 -0.1012  0.1742
    3TYR     BB  797   5.646   3.026   2.553  0.2021 -0.0314 -0.0495
    3TYR    SC1  798   5.486   2.969   2.807 -0.1384 -0.2693 -0.0558
    3TYR    SC2  799   5.559   2.809   3.010  0.0595  0.0341  0.1227
    3TYR    SC3  800   5.329   2.947   3.025 -0.1471 -0.2740 -0.0626
    1TYR     BB  801   0.425   2.318   3.564  0.0447  0.2847  0.1034
    1TYR    SC1  802   0.474   2.011   3.591 -0.1755  0.3428  0.2666
    1TYR    SC2  803   0.603   1.815   3.723 -0.2787  0.1709  0.1192
    1TYR    SC3  804   0.510   1.770   3.474 -0.3883  0.3785  0.1200
    2ILE     BB  805   0.291   2.431   3.361 -0.3426 -0.1850  0.0564
    2ILE    SC1  806   0.425   2.681   3.236 -0.2001 -0.2519  0.0737
    3TYR     BB  807   0.154   2.269   3.125  0.2503 -0.0412 -0.1803
    3TYR    SC1  808   0.309   2.305   2.894  0.1877 -0.0986  0.2720
    3TYR    SC2  809   0.495   2.482   2.809  0.3220 -0.3097  0.1139
    3TYR    SC3  810   0.475   2.240   2.691 -0.1021 -0.2687  0.0815
    1TYR     BB  811   6.940   3.638   4.024 -0.2440  0.2124  0.2073
    1TYR    SC1  812   6.916   3.938   4.108 -0.3053  0.1489  0.0827
    1TYR    SC2  813   6.997   4.187   4.172  0.2514 -0.0228  0.1187
    1TYR    SC3  814   6.878   4.033   4.357  0.2409  0.0887  0.2062
    2ILE     BB  815   6.766   3.512   3.742 -0.0865 -0.0668  0.0678
    2ILE    SC1  816   6.879   3.227   3.787  0.2272  0.0494  0.0505
    3TYR     BB  817   6.869   3.589   3.445 -0.0112 -0.1017  0.1372
    3TYR    SC1  818   6.900   3.847   3.332 -0.0252 -0.2838 -0.3075
    3TYR    SC2  819   6.780   4.049   3.198 -0.1306 -0.0758  0.0841
    3TYR    SC3  820   7.049   4.038   3.215 -0.1206 -0.0479 -0.0597
    1TYR     BB  821  -0.199   2.656   3.266  0.1718  0.4227 -0.0977
    1TYR    SC1  822  -0.480   2.665   3.163 -0.0033 -0.1401 -0.0602
    1TYR    SC2  823  -0.709   2.749   3.047 -0.1702 -0.1952  0.2192
    1TYR    SC3  824  -0.710   2.530   3.204  0.0916 -0.2380  0.1675
    2ILE     BB  825  -0.049   2.837   3.064  0.4105 -0.0471  0.1099
    2ILE    SC1  826   0.077   3.061   3.238 -0.0550  0.1648  0.1925
    3TYR     BB  827   0.062   2.866   2.802 -0.2432 -0.1799  0.3584
    3TYR    SC1  828   0.370   2.945   2.777 -0.0669  0.1216 -0.2910
    3TYR    SC2  829   0.611   2.991   2.891 -0.3743  0.3232  0.3364
    3TYR    SC3  830   0.470   3.196   2.784 -0.1999  0.1740 -0.2276
    1TYR     BB  831   7.738   3.135   4.416 -0.1810  0.0772  0.1535
    1TYR    SC1  832   7.798   3.376   4.312  0.3890 -0.3075 -0.1717
    1TYR    SC2  833   7.935   3.584   4.207  0.0481  0.0617  0.0871
    1TYR    SC3  834   7.673   3.552   4.148  0.1431 -0.4291 -0.1201
    2ILE     BB  835   7.515   3.006   4.442  0.1702  0.0702 -0.2534
    2ILE    SC1  836   7.470   2.705   4.384  0.2750  0.0099 -0.0370
    3TYR     BB  837   7.310   3.215   4.624 -0.1474 -0.2676  0.0549
    3TYR    SC1  838   7.356   3.489   4.579 -0.1710  0.2294  0.2826
    3TYR    SC2  839   7.498   3.715   4.537  0.0235  0.0174 -0.3394
    3TYR    SC3  840   7.235   3.708   4.474  0.0393  0.0489 -0.4117
    1TYR     BB  841   4.861   3.132   3.755  0.2088  0.0527 -0.1529
    1TYR    SC1  842   4.926   3.302   3.991  0.1023 -0.0754 -0.1068
    1TYR    SC2  843   5.107   3.386   4.173 -0.2557  0.4193  0.0493
    1TYR    SC3  844   4.849   3.353   4.245 -0.3601  0.3869 -0.3133
    2ILE     BB  845   5.038   2.895   3.754  0.1008 -0.1377  0.0451
    2ILE    SC1  846   5.210   2.887   4.011  0.0668  0.1376  0.0790
    3TYR     BB  847   5.253   2.815   3.540 -0.0727  0.1498 -0.0395
    3TYR    SC1  848   5.156   2.628   3.322 -0.1277 -0.1638  0.2808
    3TYR    SC2  849   5.055   2.380   3.287 -0.0866 -0.1471  0.0185
    3TYR    SC3  850   5.258   2.466   3.131 -0.0440  0.0224  0.1640
    1TYR     BB  851   4.191   3.658   4.646 -0.3852 -0.0593  0.0006
    1TYR    SC1  852   4.192   3.679   4.925  0.0029 -0.2312 -0.1501
    1TYR    SC2  853   4.289   3.799   5.145 -0.1281 -0.0211 -0.2033
    1TYR    SC3  854   4.257   3.531   5.141  0.0780 -0.0518 -0.0473
    2ILE     BB  855   4.311   3.394   4.536 -0.1162  0.1558  0.0286
    2ILE    SC1  856   4.387   3.442   4.240  0.0757  0.1111  0.0684
    3TYR     BB  857   4.529   3.218   4.658 -0.0777  0.0646  0.1408
    3TYR    SC1  858   4.507   2.881   4.668 -0.0183 -0.0624  0.1489
    3TYR    SC2  859   4.495   2.614   4.635 -0.1996 -0.0537  0.1284
    3TYR    SC3  860   4.698   2.724   4.775 -0.0896 -0.1957  0.0834
    1TYR     BB  861   8.582   3.200   3.724  0.0302  0.1376 -0.1678
    1TYR    SC1  862   8.441   3.022   3.974  0.3209 -0.1637  0.0916
    1TYR    SC2  863   8.187   3.024   4.065  0.2081 -0.2164 -0.2098
    1TYR    SC3  864   8.377   2.890   4.203  0.1291  0.0183  0.1480
    2ILE     BB  865   8.294   3.254   3.525  0.3022  0.0029 -0.1481
    2ILE    SC1  866   8.168   3.401   3.766  0.3777  0.0742 -0.1516
    3TYR     BB  867   8.230   3.275   3.284 -0.1805  0.0148 -0.2189
    3TYR    SC1  868   7.928   3.338   3.225  0.0604  0.0331 -0.0715
    3TYR    SC2  869   7.692   3.343   3.356  0.0863  0.2018 -0.0291
    3TYR    SC3  870   7.697   3.358   3.088  0.0435  0.0766 -0.0372
    1TYR     BB  871   5.682   3.049   3.454 -0.1051  0.0817  0.0320
    1TYR    SC1  872   5.858   2.859   3.330  0.2111  0.1826 -0.3398
    1TYR    SC2  873   6.122   2.824   3.283  0.1994 -0.2325 -0.1542
    1TYR    SC3  874   5.942   2.660   3.168  0.0618 -0.2741  0.1096
    2ILE     BB  875   5.630   3.022   3.748 -0.0490  0.2252 -0.2895
    2ILE    SC1  876   5.623   3.275   3.926 -0.1495  0.1118 -0.1282
    3TYR     BB  877   5.675   2.740   3.875 -0.1852 -0.2563  0.1609
    3TYR    SC1  878   5.713   2.498   3.634  0.3043 -0.3849 -0.0627
    3TYR    SC2  879   5.541   2.313   3.539 -0.0076 -0.1499  0.0228
    3TYR    SC3  880   5.624   2.513   3.379  0.1081 -0.2039  0.0135
    1TYR     BB  881   0.944   2.480   2.690  0.1813  0.2234  0.1270
    1TYR    SC1  882   1.227   2.391   2.510  0.0634  0.1886 -0.0146
    1TYR    SC2  883   1.454   2.246   2.510  0.0323  0.1395 -0.0186
    1TYR    SC3  884   1.267   2.203   2.320 -0.2756 -0.2877  0.3564
    2ILE     BB  885   1.220   2.582   2.971  0.2209  0.0723 -0.4161
    2ILE    SC1  886   1.493   2.436   2.976  0.2239  0.0808 -0.2433
    3TYR     BB  887   1.092   2.850   3.097  0.0955  0.2346  0.2117
    3TYR    SC1  888   1.086   3.035   2.878 -0.0039  0.0357  0.3868
    3TYR    SC2  889   0.966   3.133   2.656  0.1454 -0.2968  0.1480
    3TYR    SC3  890   1.049   3.301   2.851  0.0527  0.0089 -0.0661
    1TYR     BB  891   4.709   3.795   4.436 -0.1285  0.2339  0.2119
    1TYR    SC1  892   4.762   4.076   4.292 -0.2755  0.0861  0.0940
    1TYR    SC2  893   4.726   4.198   4.053  0.4181  0.2683  0.0559
    1TYR    SC3  894   4.881   4.313   4.242  0.4126 -0.1758  0.3490
    2ILE     BB  895   4.647   3.831   4.754  0.2021  0.0971  0.0365
    2ILE    SC1  896   4.618   4.138   4.783 -0.1314  0.0466  0.3223
    3TYR     BB  897   4.716   3.614   4.922  0.0606 -0.0542 -0.1979
    3TYR    SC1  898   4.942   3.686   5.100 -0.1761  0.2379  0.0443
    3TYR    SC2  899   5.160   3.846   5.093 -0.1204  0.1608 -0.0006
    3TYR    SC3  900   5.031   3.803   5.326 -0.0359  0.1385  0.0422
    1TYR     BB  901   8.276   4.308   4.571 -0.0708  0.0277 -0.4926
    1TYR    SC1  902   8.489   4.513   4.624  0.1580 -0.1388  0.1830
    1TYR    SC2  903   8.655   4.727   4.626  0.1381 -0.1213  0.0807
    1TYR    SC3  904   8.734   4.496   4.512  0.1935 -0.1981  0.2687
    2ILE     BB  905   8.109   4.413   4.253 -0.0836 -0.0727 -0.2382
    2ILE    SC1  906   8.279   4.546   4.030  0.1132 -0.0175 -0.0600
    3TYR     BB  907   7.811   4.456   4.248 -0.1535 -0.0035  0.0330
    3TYR    SC1  908   7.735   4.706   4.054 -0.3309 -0.0492  0.0298
    3TYR    SC2  909   7.815   4.786   3.808  0.1928 -0.4088  0.0619
    3TYR    SC3  910   7.817   4.961   4.015 -0.5526 -0.0105 -0.2208
    1TYR     BB  911   5.452   2.100   4.008 -0.1071  0.1027 -0.0981
    1TYR    SC1  912   5.294   2.372   3.917  0.0724 -0.0101 -0.1525
    1TYR    SC2  913   5.115   2.369   3.716 -0.0335 -0.1239 -0.0595
    1TYR    SC3  914   5.041   2.459   3.959  0.0846 -0.0159 -0.0621
    2ILE     BB  915   5.740   2.238   4.007  0.0419  0.0946 -0.2773
    2ILE    SC1  916   5.925   2.024   3.881  0.1582 -0.1349  0.2456
    3TYR     BB  917   5.845   2.439   4.199  0.2111  0.1807  0.2649
    3TYR    SC1  918   6.057   2.299   4.336  0.0237  0.0714  0.1981
    3TYR    SC2  919   6.092   2.037   4.391  0.0287  0.0558  0.1220
    3TYR    SC3  920   6.273   2.218   4.476 -0.0035  0.0407  0.2223
    1TYR     BB  921   5.909   3.002   4.207 -0.1068  0.2167 -0.0707
    1TYR    SC1  922   5.957   3.311   4.287  0.1982 -0.0771 -0.0576
    1TYR    SC2  923   6.020   3.560   4.205 -0.1347  0.0314 -0.0028
    1TYR    SC3  924   5.961   3.514   4.464 -0.1537 -0.0895 -0.0277
    2ILE     BB  925   5.583   2.915   4.422 -0.0608  0.0633 -0.1656
    2ILE    SC1  926   5.520   3.213   4.481 -0.0817 -0.0000  0.1578
    3TYR     BB  927   5.445   2.674   4.376 -0.2729 -0.1949  0.0988
    3TYR    SC1  928   5.196   2.542   4.434 -0.0657  0.4091  0.1060
    3TYR    SC2  929   4.955   2.443   4.504  0.0728 -0.0906 -0.0718
    3TYR    SC3  930   5.115   2.304   4.337  0.4504  0.2749 -0.0345
    1TYR     BB  931   3.189   4.962   3.796  0.0646  0.0297  0.0323
    1TYR    SC1  932   3.068   5.272   3.745  0.0850  0.1328 -0.4721
    1TYR    SC2  933   3.103   5.524   3.655 -0.1621  0.2487 -0.2582
    1TYR    SC3  934   2.856   5.437   3.722 -0.0998 -0.0941 -0.4428
    2ILE     BB  935   3.466   4.897   3.753 -0.0702 -0.1371  0.1715
    2ILE    SC1  936   3.626   5.038   3.981  0.5706 -0.0611 -0.2925
    3TYR     BB  937   3.619   4.805   3.475 -0.1990 -0.1185  0.1672
    3TYR    SC1  938   3.464   4.801   3.243  0.4212 -0.1845  0.1742
    3TYR    SC2  939   3.208   4.718   3.213  0.3731 -0.0808  0.2893
    3TYR    SC3  940   3.356   4.782   2.996  0.1735  0.2371  0.2399
    1TYR     BB  941   3.572   4.480   3.910  0.2329  0.0452 -0.2720
    1TYR    SC1  942   3.371   4.268   4.068 -0.1866  0.0773 -0.1567
    1TYR    SC2  943   3.129   4.192   4.162 -0.1467 -0.0761 -0.1732
    1TYR    SC3  944   3.338   4.022   4.176 -0.0317  0.0662 -0.1324
    2ILE     BB  945   3.870   4.485   3.898  0.0190 -0.1296 -0.2360
    2ILE    SC1  946   4.001   4.746   4.004 -0.0603 -0.2258  0.1140
    3TYR     BB  947   4.093   4.258   3.885 -0.1084 -0.3078  0.2590
    3TYR    SC1  948   4.308   4.293   4.139  0.1274  0.3079 -0.0581
    3TYR    SC2  949   4.393   4.207   4.381  0.0348 -0.1544 -0.1779
    3TYR    SC3  950   4.251   4.436   4.360  0.2183 -0.0003  0.1737
    1TYR     BB  951   6.343   4.779   3.122  0.1193 -0.1750 -0.1631
    1TYR    SC1  952   6.424   4.918   2.882 -0.0272  0.0240  0.1164
    1TYR    SC2  953   6.543   5.078   2.700 -0.3495  0.0408 -0.0869
    1TYR    SC3  954   6.338   4.917   2.627 -0.0431 -0.4684  0.1119
    2ILE     BB  955   6.323   4.974   3.355  0.2703 -0.0055 -0.2677
    2ILE    SC1  956   6.215   5.258   3.299  0.0214  0.0656  0.4541
    3TYR     BB  957   6.431   5.037   3.679  0.0425  0.2232  0.4787
    3TYR    SC1  958   6.712   5.169   3.550  0.1070  0.1410 -0.0253
    3TYR    SC2  959   6.829   5.411   3.529  0.2255  0.0755 -0.1286
    3TYR    SC3  960   6.980   5.189   3.566  0.1232  0.0093 -0.1028
    1TYR     BB  961   6.864   3.449   4.507  0.0130  0.0690  0.4182
    1TYR    SC1  962   6.663   3.625   4.401  0.1722  0.3035 -0.1448
    1TYR    SC2  963   6.464   3.648   4.220  0.0346 -0.1254 -0.0633
    1TYR    SC3  964   6.439   3.762   4.464 -0.0272 -0.0183 -0.1189
    2ILE     BB  965   6.965   3.208   4.251  0.0889  0.2030  0.2829
    2ILE    SC1  966   7.238   3.249   4.112 -0.0989 -0.0014 -0.1670
    3TYR     BB  967   6.852   2.861   4.164 -0.0204 -0.1860 -0.0014
    3TYR    SC1  968   6.984   2.765   4.426 -0.1062  0.1045 -0.1715
    3TYR    SC2  969   6.910   2.887   4.653 -0.2667 -0.1411 -0.0870
    3TYR    SC3  970   7.091   2.688   4.662 -0.0107  0.0775 -0.2229
    1TYR     BB  971   1.407   2.990   4.071 -0.0603 -0.2147 -0.1322
    1TYR    SC1  972   1.699   2.920   3.994 -0.0208 -0.0160  0.1200
    1TYR    SC2  973   1.853   2.728   4.104 -0.0961 -0.0157  0.2280
    1TYR    SC3  974   1.931   2.850   3.877  0.0015 -0.1025  0.2144
    2ILE     BB  975   1.308   3.090   4.381  0.2706 -0.0373 -0.0634
    2ILE    SC1  976   0.998   3.093   4.400  0.2655  0.1848 -0.1398
    3TYR     BB  977   1.403   3.315   4.446  0.0699  0.0743 -0.1238
    3TYR    SC1  978   1.201   3.570   4.510 -0.0480 -0.1967  0.1520
    3TYR    SC2  979   1.046   3.724   4.670  0.1665 -0.0103  0.1868
    3TYR    SC3  980   0.941   3.605   4.452  0.0121  0.2524  0.1137
    1TYR     BB  981   5.281   3.818   4.373 -0.0372  0.2002  0.2473
    1TYR    SC1  982   5.139   4.035   4.555  0.0125 -0.0429 -0.2629
    1TYR    SC2  983   5.058   4.265   4.673 -0.0785 -0.1404 -0.1314
    1TYR    SC3  984   5.266   4.126   4.776  0.0812 -0.0362 -0.3045
    2ILE     BB  985   5.200   3.922   4.059 -0.0911  0.0302  0.3777
    2ILE    SC1  986   5.341   3.726   3.866  0.1535  0.3182  0.2552
    3TYR     BB  987   5.294   4.260   3.996  0.0149  0.3432 -0.0093
    3TYR    SC1  988   5.399   4.349   4.257  0.0110  0.0844  0.0903
    3TYR    SC2  989   5.392   4.500   4.479  0.0739  0.3705 -0.0947
    3TYR    SC3  990   5.535   4.270   4.475 -0.0688  0.2700  0.2094
    1TYR     BB  991   6.552   2.560   3.159  0.0658 -0.2511 -0.0061
    1TYR    SC1  992   6.617   2.291   3.107  0.0793  0.2292  0.0141
    1TYR    SC2  993   6.549   2.049   3.006 -0.0622  0.2564  0.0428
    1TYR    SC3  994   6.769   2.073   3.160  0.1243  0.2032 -0.2079
    2ILE     BB  995   6.667   2.606   3.503 -0.1230  0.0490 -0.0110
    2ILE    SC1  996   6.731   2.326   3.624  0.1903  0.0901 -0.0711
    3TYR     BB  997   6.820   2.793   3.595  0.0906  0.1092  0.1910
    3TYR    SC1  998   7.115   2.757   3.706  0.0397  0.1995  0.2710
    3TYR    SC2  999   7.259   2.683   3.923  0.4308  0.1354  0.0007
    3TYR    SC3 1000   7.375   2.692   3.679 -0.0538 -0.0145 -0.2528
   7.64394   7.64394   7.64394
