Generated by trjconv : Martini system from ../2_Creating_coordinates/TYR-GLY-TYR_aa.pdb t=   0.00000
  774
    1TYR     BB    1   5.723   4.649   3.007  0.1097  0.0890  0.3013
    1TYR    SC1    2   5.910   4.542   3.242 -0.0906  0.4208 -0.0527
    1TYR    SC2    3   5.909   4.580   3.508 -0.1752  0.2539 -0.0275
    1TYR    SC3    4   6.019   4.357   3.405 -0.2934  0.2372 -0.1192
    2GLY     BB    5   5.472   4.617   2.938  0.5106  0.1594 -0.3325
    3TYR     BB    6   5.331   4.568   2.701  0.1172 -0.0497  0.0285
    3TYR    SC1    7   5.543   4.603   2.454 -0.0943 -0.0536 -0.1453
    3TYR    SC2    8   5.734   4.638   2.264  0.0723  0.1699  0.0548
    3TYR    SC3    9   5.776   4.468   2.470 -0.1645 -0.1788 -0.1706
    1TYR     BB   10   3.066   4.950   4.785  0.0223 -0.0176 -0.0797
    1TYR    SC1   11   3.073   5.210   4.932  0.0523  0.0577 -0.1874
    1TYR    SC2   12   3.038   5.476   4.903 -0.0801  0.0167 -0.4325
    1TYR    SC3   13   2.996   5.361   5.144  0.1627  0.2420 -0.2750
    2GLY     BB   14   3.046   4.711   4.809  0.2942  0.0656  0.1552
    3TYR     BB   15   3.044   4.410   4.724  0.0334 -0.1470 -0.0966
    3TYR    SC1   16   2.832   4.269   4.849 -0.0718  0.1450 -0.1665
    3TYR    SC2   17   2.700   4.091   5.001  0.3184  0.2169  0.2879
    3TYR    SC3   18   2.589   4.330   4.948  0.0182  0.0497  0.1270
    1TYR     BB   19   4.157   2.405   3.051  0.0201 -0.3348  0.2320
    1TYR    SC1   20   3.991   2.313   2.777 -0.2025 -0.1913 -0.1286
    1TYR    SC2   21   3.732   2.232   2.777 -0.1529 -0.3554  0.0093
    1TYR    SC3   22   3.885   2.197   2.557 -0.2460 -0.2584 -0.0725
    2GLY     BB   23   4.041   2.448   3.274 -0.0646 -0.1274 -0.2070
    3TYR     BB   24   4.009   2.685   3.442  0.3449  0.0161  0.2706
    3TYR    SC1   25   4.235   2.883   3.508 -0.0201 -0.0783  0.0886
    3TYR    SC2   26   4.285   3.118   3.629 -0.0009 -0.0812  0.0860
    3TYR    SC3   27   4.490   2.965   3.542 -0.0138 -0.0935  0.0776
    1TYR     BB   28   2.392   3.251   4.853 -0.1361  0.1154  0.0305
    1TYR    SC1   29   2.297   2.983   4.993  0.3031 -0.0475 -0.0167
    1TYR    SC2   30   2.364   2.803   5.184 -0.0431 -0.3821 -0.1933
    1TYR    SC3   31   2.107   2.832   5.109  0.0170  0.1137 -0.2601
    2GLY     BB   32   2.690   3.304   4.912 -0.0850  0.0605 -0.2700
    3TYR     BB   33   2.768   3.144   5.206  0.3387  0.3584  0.0276
    3TYR    SC1   34   2.978   2.885   5.155  0.4071  0.0884  0.2788
    3TYR    SC2   35   3.038   2.722   4.947  0.0234  0.1471  0.1115
    3TYR    SC3   36   3.141   2.672   5.192  0.1551 -0.1671 -0.0010
    1TYR     BB   37   6.024   2.809   3.292  0.0467  0.1854  0.5624
    1TYR    SC1   38   6.210   2.703   3.480  0.1791 -0.0484  0.2679
    1TYR    SC2   39   6.467   2.711   3.561  0.3574 -0.0244 -0.2495
    1TYR    SC3   40   6.330   2.479   3.574  0.3285  0.0061  0.2114
    2GLY     BB   41   5.937   3.008   3.182 -0.0642  0.2593 -0.3007
    3TYR     BB   42   5.931   3.201   2.969  0.1013 -0.1416  0.2303
    3TYR    SC1   43   5.744   3.438   2.961  0.0383  0.0873 -0.1173
    3TYR    SC2   44   5.627   3.635   3.103 -0.0580 -0.0873  0.0505
    3TYR    SC3   45   5.485   3.500   2.917  0.0348  0.0628 -0.1324
    1TYR     BB   46   4.641   3.426   5.240  0.1957 -0.1335 -0.1155
    1TYR    SC1   47   4.611   3.737   5.293 -0.3625  0.2534 -0.2399
    1TYR    SC2   48   4.552   3.967   5.422 -0.0902  0.1863  0.0170
    1TYR    SC3   49   4.793   3.849   5.458 -0.0458  0.1007 -0.4708
    2GLY     BB   50   4.510   3.339   5.057  0.0343 -0.1653  0.5259
    3TYR     BB   51   4.268   3.192   4.942 -0.1634 -0.1443  0.0457
    3TYR    SC1   52   4.251   2.948   5.081 -0.2989  0.3527  0.2363
    3TYR    SC2   53   4.389   2.765   5.225 -0.0537  0.1640 -0.2159
    3TYR    SC3   54   4.135   2.825   5.292 -0.0487 -0.1381  0.1073
    1TYR     BB   55   3.209   4.124   3.755 -0.1187  0.1048  0.0551
    1TYR    SC1   56   3.238   3.878   3.921  0.0529 -0.0219 -0.1190
    1TYR    SC2   57   3.105   3.644   3.917 -0.1477  0.0860 -0.0126
    1TYR    SC3   58   3.256   3.710   4.132  0.2618 -0.1288 -0.2186
    2GLY     BB   59   3.451   4.245   3.632 -0.0063  0.1476 -0.0729
    3TYR     BB   60   3.729   4.190   3.439  0.1310 -0.1027 -0.1626
    3TYR    SC1   61   3.717   4.235   3.144 -0.2748 -0.0275  0.0354
    3TYR    SC2   62   3.653   4.159   2.893 -0.1093  0.1964 -0.0790
    3TYR    SC3   63   3.476   4.300   3.039 -0.1777  0.1301 -0.0972
    1TYR     BB   64   3.153   3.566   5.035  0.2557 -0.0469  0.2479
    1TYR    SC1   65   3.229   3.285   4.931 -0.1256  0.2136  0.2794
    1TYR    SC2   66   3.453   3.195   4.812 -0.4591  0.1448 -0.3500
    1TYR    SC3   67   3.359   3.072   5.033  0.0874  0.1606 -0.0838
    2GLY     BB   68   3.057   3.747   4.818  0.2597  0.1212 -0.0144
    3TYR     BB   69   3.270   3.900   4.665  0.1840  0.1654  0.0568
    3TYR    SC1   70   3.465   4.124   4.764 -0.1736  0.1424 -0.0850
    3TYR    SC2   71   3.715   4.215   4.717 -0.1048 -0.0692 -0.1431
    3TYR    SC3   72   3.601   4.253   4.959 -0.0213  0.0367 -0.1195
    1TYR     BB   73   5.162   3.914   3.046  0.2565 -0.0791  0.1253
    1TYR    SC1   74   5.085   3.759   2.785 -0.0078 -0.1402 -0.0114
    1TYR    SC2   75   4.983   3.725   2.537  0.0797 -0.0324 -0.0640
    1TYR    SC3   76   5.162   3.548   2.635  0.1904  0.0282 -0.1547
    2GLY     BB   77   5.445   4.096   3.029  0.2220  0.1332 -0.1840
    3TYR     BB   78   5.529   4.242   3.242  0.2787 -0.1865 -0.1943
    3TYR    SC1   79   5.419   4.466   3.442 -0.0367  0.1289 -0.0049
    3TYR    SC2   80   5.231   4.655   3.494  0.0389  0.1892  0.0523
    3TYR    SC3   81   5.493   4.721   3.492  0.0958  0.0127  0.4515
    1TYR     BB   82   5.466   3.242   3.343 -0.4389  0.0983  0.2694
    1TYR    SC1   83   5.210   3.389   3.281 -0.0521  0.0171 -0.3131
    1TYR    SC2   84   5.000   3.514   3.165 -0.1090  0.2824  0.0514
    1TYR    SC3   85   5.028   3.517   3.433  0.0709 -0.2247  0.0542
    2GLY     BB   86   5.670   3.305   3.476  0.0793  0.4465 -0.0754
    3TYR     BB   87   5.738   3.515   3.762 -0.0066  0.5071 -0.1154
    3TYR    SC1   88   5.965   3.717   3.795  0.0494 -0.0161  0.3255
    3TYR    SC2   89   6.127   3.877   3.941  0.4942 -0.1205 -0.0237
    3TYR    SC3   90   6.121   3.902   3.672 -0.2838  0.0518 -0.0183
    1TYR     BB   91   1.812   4.122   2.892  0.0021 -0.0097  0.1710
    1TYR    SC1   92   1.666   4.342   3.056 -0.0567  0.1629 -0.1687
    1TYR    SC2   93   1.615   4.564   3.201 -0.1191  0.0477 -0.0101
    1TYR    SC3   94   1.412   4.431   3.084 -0.0994 -0.0084  0.0188
    2GLY     BB   95   1.896   4.106   2.640  0.0233  0.1168  0.0096
    3TYR     BB   96   2.141   3.796   2.556  0.1597  0.0691 -0.1106
    3TYR    SC1   97   2.023   3.593   2.698  0.1159 -0.2059  0.0124
    3TYR    SC2   98   1.809   3.505   2.837 -0.1579  0.1469 -0.1688
    3TYR    SC3   99   1.987   3.328   2.737 -0.1467 -0.1333  0.3139
    1TYR     BB  100   6.051   2.835   4.474  0.1261 -0.0631  0.0738
    1TYR    SC1  101   5.942   2.625   4.713 -0.0024  0.1479 -0.0191
    1TYR    SC2  102   5.681   2.552   4.710 -0.0739  0.3732  0.2631
    1TYR    SC3  103   5.856   2.425   4.873  0.0200  0.1515 -0.0025
    2GLY     BB  104   5.725   3.021   4.389 -0.0340 -0.2253 -0.0866
    3TYR     BB  105   5.622   3.148   4.140 -0.0316 -0.3895 -0.0367
    3TYR    SC1  106   5.363   3.153   3.991 -0.0452 -0.1785  0.0481
    3TYR    SC2  107   5.153   3.042   3.864 -0.3682  0.2289  0.1974
    3TYR    SC3  108   5.239   3.288   3.793  0.1293  0.0366  0.0800
    1TYR     BB  109   2.858   4.032   4.416 -0.0551  0.1273  0.5973
    1TYR    SC1  110   2.669   3.873   4.571  0.0728 -0.0498  0.1741
    1TYR    SC2  111   2.550   3.744   4.776  0.0253  0.2886  0.3679
    1TYR    SC3  112   2.434   3.963   4.668  0.1244  0.2020  0.0749
    2GLY     BB  113   2.799   4.092   4.099  0.1284 -0.1654 -0.0676
    3TYR     BB  114   2.752   4.269   3.888  0.2095  0.1181  0.3378
    3TYR    SC1  115   2.700   4.236   3.596 -0.1077  0.2246  0.0964
    3TYR    SC2  116   2.543   4.082   3.438  0.0275 -0.0856  0.2523
    3TYR    SC3  117   2.620   4.328   3.355  0.0087 -0.1961 -0.1151
    1TYR     BB  118   2.176   4.413   3.063 -0.2171  0.1188  0.2266
    1TYR    SC1  119   2.046   4.600   2.869 -0.0856  0.0209 -0.1300
    1TYR    SC2  120   1.949   4.671   2.627  0.1515  0.1174 -0.2006
    1TYR    SC3  121   1.833   4.765   2.852 -0.0660  0.0331 -0.2739
    2GLY     BB  122   2.104   4.326   3.288 -0.1620  0.0402  0.1199
    3TYR     BB  123   1.929   4.229   3.482 -0.1291  0.2265  0.3006
    3TYR    SC1  124   1.645   4.176   3.528 -0.2160  0.2200 -0.2339
    3TYR    SC2  125   1.418   4.302   3.605 -0.1680  0.2464 -0.1326
    3TYR    SC3  126   1.412   4.121   3.404 -0.3495 -0.0254  0.1084
    1TYR     BB  127   2.508   5.247   5.152  0.1138 -0.1287 -0.0395
    1TYR    SC1  128   2.657   4.987   5.231  0.1182  0.1238 -0.0275
    1TYR    SC2  129   2.757   4.737   5.230 -0.1134  0.0225  0.2518
    1TYR    SC3  130   2.898   4.938   5.343  0.2888  0.1301 -0.3758
    2GLY     BB  131   2.541   5.290   4.865 -0.0195  0.3239  0.0795
    3TYR     BB  132   2.363   5.478   4.661 -0.0772  0.3533 -0.1014
    3TYR    SC1  133   2.362   5.379   4.390 -0.2246  0.0194 -0.0317
    3TYR    SC2  134   2.294   5.489   4.152 -0.0871  0.4172  0.1026
    3TYR    SC3  135   2.456   5.274   4.160 -0.1766  0.3361 -0.1647
    1TYR     BB  136   4.957   2.801   4.252  0.0314 -0.1141  0.0160
    1TYR    SC1  137   4.752   2.581   4.282 -0.2398  0.2790  0.0956
    1TYR    SC2  138   4.674   2.339   4.372  0.0725  0.0733 -0.1630
    1TYR    SC3  139   4.547   2.451   4.162 -0.0976  0.1569 -0.0189
    2GLY     BB  140   5.216   2.883   4.381  0.1574  0.1354  0.1302
    3TYR     BB  141   5.329   2.955   4.645  0.1066 -0.2668  0.0753
    3TYR    SC1  142   5.210   3.071   4.901 -0.2785 -0.2238 -0.0391
    3TYR    SC2  143   5.293   3.242   5.094  0.0923 -0.0792 -0.3111
    3TYR    SC3  144   5.048   3.127   5.110  0.0790 -0.0060  0.1923
    1TYR     BB  145   5.145   5.372   2.796  0.1922 -0.1566  0.1337
    1TYR    SC1  146   5.201   5.258   2.522  0.1115  0.0191 -0.0365
    1TYR    SC2  147   5.028   5.154   2.343  0.0515 -0.0586  0.0648
    1TYR    SC3  148   5.259   5.026   2.397  0.0239 -0.0873  0.1156
    2GLY     BB  149   5.054   5.615   2.797 -0.2548 -0.0327  0.2593
    3TYR     BB  150   4.850   5.821   2.646 -0.1997  0.1695 -0.3271
    3TYR    SC1  151   4.555   5.773   2.788  0.1322 -0.0633  0.0201
    3TYR    SC2  152   4.340   5.726   2.943  0.1281  0.1553  0.0839
    3TYR    SC3  153   4.312   5.740   2.675  0.1054 -0.0477  0.0733
    1TYR     BB  154   5.722   3.721   4.335 -0.1978 -0.1314 -0.0583
    1TYR    SC1  155   5.899   3.961   4.361 -0.1328 -0.0608  0.2064
    1TYR    SC2  156   6.048   4.117   4.523  0.1860  0.0925 -0.2124
    1TYR    SC3  157   6.022   4.179   4.262 -0.2415 -0.1945 -0.2511
    2GLY     BB  158   5.490   3.649   4.127  0.1616 -0.0902  0.0822
    3TYR     BB  159   5.258   3.729   3.992 -0.1893 -0.0053 -0.0172
    3TYR    SC1  160   5.267   3.755   3.683 -0.0269 -0.0072  0.2144
    3TYR    SC2  161   5.226   3.941   3.493  0.0136 -0.5375 -0.3512
    3TYR    SC3  162   5.461   3.811   3.505  0.1407 -0.2902  0.3009
    1TYR     BB  163   5.001   2.531   4.728 -0.1234  0.2387 -0.1018
    1TYR    SC1  164   4.835   2.775   4.703  0.1272 -0.0010 -0.0251
    1TYR    SC2  165   4.703   2.850   4.926 -0.3655 -0.0392 -0.2891
    1TYR    SC3  166   4.763   3.033   4.736 -0.1914 -0.0545 -0.2508
    2GLY     BB  167   5.186   2.389   4.482 -0.0810 -0.1643 -0.0213
    3TYR     BB  168   5.137   2.199   4.291 -0.2717 -0.1619  0.1457
    3TYR    SC1  169   4.950   2.113   4.051  0.1973  0.0235 -0.2255
    3TYR    SC2  170   4.890   2.171   3.795 -0.1079 -0.0639 -0.1784
    3TYR    SC3  171   4.851   1.921   3.889 -0.1216 -0.0009 -0.0121
    1TYR     BB  172   2.268   4.182   3.894 -0.1897 -0.0214 -0.1432
    1TYR    SC1  173   2.347   3.931   4.027 -0.1083 -0.3150 -0.2800
    1TYR    SC2  174   2.326   3.661   4.031 -0.4363 -0.2953  0.1275
    1TYR    SC3  175   2.330   3.800   4.262 -0.1571  0.0506 -0.0713
    2GLY     BB  176   1.996   4.306   3.953 -0.0997 -0.0394 -0.0061
    3TYR     BB  177   1.778   4.364   4.058 -0.1530 -0.0401 -0.0673
    3TYR    SC1  178   1.561   4.164   4.047  0.1145 -0.0004  0.0521
    3TYR    SC2  179   1.444   3.972   3.898  0.1452 -0.0745  0.1234
    3TYR    SC3  180   1.441   3.956   4.168  0.5125 -0.1978  0.1267
    1TYR     BB  181   4.143   2.664   3.922 -0.3644 -0.0045  0.1225
    1TYR    SC1  182   4.283   2.411   3.808  0.0922 -0.2316  0.3265
    1TYR    SC2  183   4.245   2.222   3.618 -0.1630  0.2748 -0.1685
    1TYR    SC3  184   4.459   2.207   3.782  0.1666 -0.1062 -0.5995
    2GLY     BB  185   4.063   2.653   4.166 -0.0811  0.0256 -0.0167
    3TYR     BB  186   3.898   2.622   4.370  0.2295 -0.2212  0.0815
    3TYR    SC1  187   3.639   2.464   4.278  0.3776 -0.0436 -0.2819
    3TYR    SC2  188   3.387   2.434   4.184  0.2709  0.0412 -0.0331
    3TYR    SC3  189   3.535   2.216   4.246  0.0780 -0.0087  0.2769
    1TYR     BB  190   4.615   5.317   3.089  0.1419 -0.1538 -0.1187
    1TYR    SC1  191   4.614   5.307   2.798  0.1985 -0.2602 -0.0055
    1TYR    SC2  192   4.534   5.151   2.592  0.0288 -0.2680  0.0640
    1TYR    SC3  193   4.691   5.366   2.545  0.1034 -0.3472 -0.0558
    2GLY     BB  194   4.886   5.337   3.249 -0.1431  0.1331  0.1304
    3TYR     BB  195   5.020   5.357   3.422  0.1704 -0.0514  0.1643
    3TYR    SC1  196   5.189   5.157   3.638  0.0313 -0.0010  0.2325
    3TYR    SC2  197   5.415   5.076   3.760  0.2566 -0.1689 -0.2646
    3TYR    SC3  198   5.177   4.974   3.836  0.3323  0.0206  0.2758
    1TYR     BB  199   3.950   2.944   3.059  0.0392  0.1893  0.2161
    1TYR    SC1  200   3.858   3.130   3.258 -0.1698  0.2349 -0.0475
    1TYR    SC2  201   3.921   3.315   3.444  0.1742  0.0604  0.0195
    1TYR    SC3  202   3.771   3.100   3.513  0.2234  0.0428  0.0730
    2GLY     BB  203   3.733   2.726   3.016 -0.2792 -0.0157  0.1420
    3TYR     BB  204   3.517   2.653   3.255  0.0876  0.3411  0.0272
    3TYR    SC1  205   3.469   2.361   3.235 -0.0200  0.1031 -0.0600
    3TYR    SC2  206   3.624   2.140   3.230 -0.3041 -0.1118  0.1510
    3TYR    SC3  207   3.373   2.130   3.133 -0.2064  0.2238 -0.1650
    1TYR     BB  208   4.135   3.862   2.849 -0.1770  0.0852  0.0651
    1TYR    SC1  209   4.331   3.943   2.634  0.0577 -0.2262 -0.0501
    1TYR    SC2  210   4.328   4.089   2.407 -0.0397 -0.0377  0.0697
    1TYR    SC3  211   4.500   3.882   2.431 -0.1899 -0.2109 -0.2670
    2GLY     BB  212   4.205   3.947   3.118 -0.1866  0.0027 -0.1060
    3TYR     BB  213   4.205   3.903   3.367  0.1387  0.2634 -0.1517
    3TYR    SC1  214   4.160   4.059   3.630 -0.3330  0.0799 -0.1751
    3TYR    SC2  215   4.153   4.060   3.901 -0.0978 -0.0519 -0.1649
    3TYR    SC3  216   4.098   4.286   3.763 -0.1517  0.0338 -0.0050
    1TYR     BB  217   4.149   3.498   5.361 -0.2072 -0.0793  0.0469
    1TYR    SC1  218   3.972   3.268   5.329 -0.0280  0.1231 -0.0411
    1TYR    SC2  219   3.756   3.206   5.180  0.0388 -0.1953 -0.0141
    1TYR    SC3  220   3.756   3.157   5.445  0.0453  0.0585  0.0356
    2GLY     BB  221   4.151   3.703   5.117  0.1430  0.3226  0.1580
    3TYR     BB  222   4.071   4.028   4.967  0.1535  0.1175 -0.2165
    3TYR    SC1  223   4.250   4.216   5.144 -0.0289 -0.0691  0.2822
    3TYR    SC2  224   4.502   4.312   5.130 -0.0005 -0.1607  0.1297
    3TYR    SC3  225   4.315   4.444   5.273  0.0635  0.0607  0.0154
    1TYR     BB  226   3.252   5.053   3.589 -0.1310  0.0118 -0.0244
    1TYR    SC1  227   2.931   4.944   3.531 -0.1727  0.0049  0.2858
    1TYR    SC2  228   2.826   4.702   3.591 -0.1011 -0.1375 -0.1169
    1TYR    SC3  229   2.750   4.831   3.366 -0.0313  0.1534  0.0188
    2GLY     BB  230   3.360   4.949   3.807  0.2739  0.2841 -0.1449
    3TYR     BB  231   3.262   4.648   3.861 -0.2002 -0.1624  0.1241
    3TYR    SC1  232   3.354   4.482   4.104 -0.1773  0.0888  0.1036
    3TYR    SC2  233   3.217   4.280   4.220  0.1168 -0.0235  0.2699
    3TYR    SC3  234   3.411   4.407   4.358  0.4238 -0.1078 -0.0687
    1TYR     BB  235   5.260   2.622   5.157  0.0588 -0.3201  0.2401
    1TYR    SC1  236   5.028   2.746   5.320 -0.2161 -0.3453 -0.0829
    1TYR    SC2  237   4.784   2.845   5.379 -0.0004  0.0243  0.2546
    1TYR    SC3  238   4.989   2.882   5.549  0.3124 -0.2271 -0.0481
    2GLY     BB  239   5.533   2.569   5.216 -0.0666  0.1338  0.0888
    3TYR     BB  240   5.797   2.618   5.339 -0.1105 -0.2961 -0.1079
    3TYR    SC1  241   6.051   2.719   5.155 -0.0462  0.1972  0.0264
    3TYR    SC2  242   6.184   2.890   4.995 -0.1275  0.1827 -0.0574
    3TYR    SC3  243   6.309   2.671   5.089 -0.0451  0.2497 -0.0086
    1TYR     BB  244   3.065   5.708   3.398  0.0517  0.1910 -0.1537
    1TYR    SC1  245   3.193   5.933   3.537 -0.2725  0.1649 -0.0058
    1TYR    SC2  246   3.355   6.026   3.732 -0.0975 -0.1895  0.0291
    1TYR    SC3  247   3.333   6.160   3.498 -0.1592  0.1357  0.2134
    2GLY     BB  248   3.311   5.505   3.428  0.0208 -0.1127  0.2674
    3TYR     BB  249   3.526   5.347   3.118 -0.1167 -0.2156  0.2128
    3TYR    SC1  250   3.332   5.372   2.899 -0.2748 -0.1289  0.2094
    3TYR    SC2  251   3.282   5.383   2.633 -0.0375 -0.0331  0.1654
    3TYR    SC3  252   3.084   5.429   2.810 -0.1671  0.0414  0.0038
    1TYR     BB  253   3.805   5.674   3.740  0.1861  0.0112 -0.0808
    1TYR    SC1  254   3.774   5.353   3.749 -0.0595 -0.1419 -0.0556
    1TYR    SC2  255   3.826   5.092   3.803 -0.5889 -0.2270  0.1087
    1TYR    SC3  256   3.740   5.166   3.557  0.1664 -0.0923 -0.1491
    2GLY     BB  257   3.724   5.731   3.534  0.1706 -0.0669  0.2460
    3TYR     BB  258   3.725   5.956   3.229  0.2234  0.3149 -0.1023
    3TYR    SC1  259   4.029   6.028   3.152  0.1723 -0.1192 -0.3414
    3TYR    SC2  260   4.121   6.225   2.993  0.1806  0.1038 -0.0697
    3TYR    SC3  261   4.285   6.109   3.173  0.1212 -0.0114 -0.0889
    1TYR     BB  262   3.418   5.052   5.224  0.2003  0.0197  0.1171
    1TYR    SC1  263   3.484   5.370   5.214  0.0757  0.0389  0.0012
    1TYR    SC2  264   3.395   5.619   5.156  0.1959  0.0958  0.0555
    1TYR    SC3  265   3.573   5.582   5.356  0.0213 -0.0605  0.1866
    2GLY     BB  266   3.503   4.900   4.981  0.0950 -0.1460  0.0344
    3TYR     BB  267   3.544   4.719   4.762 -0.0543 -0.5372 -0.0743
    3TYR    SC1  268   3.450   4.822   4.491 -0.1861  0.1672 -0.0230
    3TYR    SC2  269   3.551   4.956   4.279 -0.0297  0.0102 -0.0517
    3TYR    SC3  270   3.286   4.903   4.293 -0.0698  0.1862 -0.1128
    1TYR     BB  271   2.146   3.497   4.550  0.1727 -0.0082  0.1160
    1TYR    SC1  272   1.948   3.781   4.547 -0.3082  0.0173  0.3800
    1TYR    SC2  273   2.004   4.029   4.456 -0.1431  0.0145  0.4688
    1TYR    SC3  274   1.750   3.960   4.514 -0.2117  0.1093  0.2887
    2GLY     BB  275   2.114   3.262   4.315  0.2075  0.0879  0.2383
    3TYR     BB  276   2.214   3.019   4.438 -0.2828  0.3250  0.3071
    3TYR    SC1  277   2.003   2.928   4.684  0.2637  0.0250 -0.0078
    3TYR    SC2  278   1.791   2.857   4.833  0.1912  0.0195 -0.1131
    3TYR    SC3  279   1.872   3.114   4.830  0.0545  0.0633 -0.2377
    1TYR     BB  280   4.144   5.864   4.518 -0.2838  0.0476 -0.3263
    1TYR    SC1  281   3.951   5.730   4.739 -0.0963 -0.1100  0.0407
    1TYR    SC2  282   3.705   5.733   4.849 -0.0626  0.1099  0.1162
    1TYR    SC3  283   3.917   5.651   4.995 -0.0875 -0.0704  0.0542
    2GLY     BB  284   3.991   5.674   4.246  0.1620 -0.2203 -0.0147
    3TYR     BB  285   3.804   5.468   4.217  0.0616 -0.3070 -0.1081
    3TYR    SC1  286   3.529   5.491   4.174 -0.0623 -0.0646  0.0912
    3TYR    SC2  287   3.380   5.520   3.950 -0.2501 -0.0441  0.2159
    3TYR    SC3  288   3.318   5.330   4.130  0.0800 -0.2598  0.1131
    1TYR     BB  289   4.551   2.555   3.309 -0.2630 -0.3686  0.1525
    1TYR    SC1  290   4.711   2.597   3.592 -0.0755 -0.1622  0.2135
    1TYR    SC2  291   4.632   2.714   3.822  0.1602 -0.4049  0.4281
    1TYR    SC3  292   4.896   2.691   3.766  0.1111  0.0049 -0.0653
    2GLY     BB  293   4.497   2.752   3.080  0.2273 -0.1081 -0.1118
    3TYR     BB  294   4.452   2.927   2.916 -0.1559 -0.1360  0.0918
    3TYR    SC1  295   4.376   3.195   3.077 -0.1126 -0.2357  0.1348
    3TYR    SC2  296   4.195   3.384   3.006 -0.2460 -0.2955  0.3082
    3TYR    SC3  297   4.288   3.374   3.260 -0.0568 -0.3144  0.2400
    1TYR     BB  298   4.620   3.409   2.361  0.2199  0.1255  0.0680
    1TYR    SC1  299   4.654   3.108   2.348 -0.1159 -0.0254  0.0259
    1TYR    SC2  300   4.542   2.893   2.228 -0.1252 -0.0340  0.0499
    1TYR    SC3  301   4.686   2.862   2.455 -0.5854  0.0466  0.3683
    2GLY     BB  302   4.666   3.396   2.717  0.3238 -0.3864  0.0808
    3TYR     BB  303   4.573   3.606   2.864 -0.1558 -0.1333  0.0307
    3TYR    SC1  304   4.651   3.795   3.100 -0.0871  0.0400  0.0395
    3TYR    SC2  305   4.654   3.723   3.361  0.0652  0.0692  0.0463
    3TYR    SC3  306   4.679   3.982   3.292  0.0815  0.0558  0.0009
    1TYR     BB  307   3.737   4.611   3.831 -0.2693  0.0303  0.1427
    1TYR    SC1  308   3.829   4.546   4.087 -0.0156  0.0088  0.0623
    1TYR    SC2  309   3.866   4.519   4.352  0.0910 -0.5565  0.0046
    1TYR    SC3  310   4.058   4.440   4.181  0.0920 -0.0475 -0.2509
    2GLY     BB  311   3.735   4.681   3.559  0.4081  0.1210 -0.4323
    3TYR     BB  312   3.504   4.653   3.346 -0.2600  0.2483 -0.0181
    3TYR    SC1  313   3.222   4.599   3.276  0.1456 -0.0865 -0.0278
    3TYR    SC2  314   3.024   4.583   3.093  0.0940  0.2582 -0.0093
    3TYR    SC3  315   3.057   4.385   3.273 -0.1499  0.1343 -0.0954
    1TYR     BB  316   2.881   5.474   4.445 -0.0526  0.1100  0.2426
    1TYR    SC1  317   3.038   5.678   4.292 -0.0328  0.1828  0.2108
    1TYR    SC2  318   3.109   5.833   4.082 -0.1646 -0.0286  0.0041
    1TYR    SC3  319   3.073   5.944   4.326  0.3228  0.1704 -0.0003
    2GLY     BB  320   2.892   5.224   4.447  0.3107 -0.0573 -0.1179
    3TYR     BB  321   2.697   4.967   4.501  0.1169  0.1447  0.1764
    3TYR    SC1  322   2.546   4.774   4.670 -0.1477 -0.2740 -0.3911
    3TYR    SC2  323   2.280   4.819   4.662 -0.0624  0.4779 -0.0466
    3TYR    SC3  324   2.397   4.741   4.893  0.0143 -0.0542 -0.2459
    1TYR     BB  325   2.741   3.719   3.167 -0.0680 -0.4265  0.4444
    1TYR    SC1  326   2.695   3.668   3.457  0.0770 -0.2795  0.2166
    1TYR    SC2  327   2.712   3.524   3.686 -0.2761 -0.1722  0.3191
    1TYR    SC3  328   2.715   3.794   3.695  0.0295 -0.1643  0.1603
    2GLY     BB  329   2.965   3.539   3.017 -0.0734 -0.1552  0.2182
    3TYR     BB  330   3.032   3.375   2.807  0.4086  0.2997 -0.0796
    3TYR    SC1  331   3.199   3.486   2.590  0.0423  0.0735 -0.1103
    3TYR    SC2  332   3.441   3.591   2.532 -0.0986  0.3654 -0.1946
    3TYR    SC3  333   3.265   3.542   2.335 -0.1644  0.2966 -0.1197
    1TYR     BB  334   1.253   2.737   3.333 -0.0762 -0.0125  0.0789
    1TYR    SC1  335   1.098   3.023   3.403  0.0102  0.2426 -0.0923
    1TYR    SC2  336   1.011   3.164   3.616 -0.4816 -0.0791 -0.0602
    1TYR    SC3  337   0.921   3.224   3.368 -0.0695  0.1602 -0.1657
    2GLY     BB  338   1.387   2.654   3.561  0.0597  0.1579  0.0530
    3TYR     BB  339   1.619   2.613   3.644 -0.3294 -0.1366  0.2652
    3TYR    SC1  340   1.692   2.419   3.881  0.3273  0.0934  0.0500
    3TYR    SC2  341   1.827   2.265   4.057  0.0255  0.0633  0.2664
    3TYR    SC3  342   1.618   2.162   3.921  0.0754  0.1708  0.1058
    1TYR     BB  343   1.502   3.139   3.570  0.2090  0.0810  0.2485
    1TYR    SC1  344   1.458   3.298   3.267 -0.1137 -0.1579 -0.0893
    1TYR    SC2  345   1.312   3.221   3.054 -0.3680  0.2335 -0.0691
    1TYR    SC3  346   1.410   3.473   3.068  0.3140 -0.0043 -0.0716
    2GLY     BB  347   1.681   3.164   3.713  0.1907  0.0282  0.2111
    3TYR     BB  348   1.928   3.294   3.807 -0.2351 -0.0385 -0.1907
    3TYR    SC1  349   1.900   3.579   3.837  0.0778 -0.0832 -0.1462
    3TYR    SC2  350   1.838   3.836   3.787 -0.1270 -0.0775  0.1088
    3TYR    SC3  351   1.915   3.762   4.035 -0.2970 -0.2996  0.0987
    1TYR     BB  352   3.313   4.074   2.435  0.3359  0.0045  0.0914
    1TYR    SC1  353   3.114   4.067   2.220 -0.2113  0.0176 -0.0199
    1TYR    SC2  354   3.039   4.107   1.963 -0.2375  0.2013  0.0144
    1TYR    SC3  355   2.953   3.889   2.097 -0.1422  0.0515 -0.1625
    2GLY     BB  356   3.204   4.397   2.625  0.2589  0.3020  0.0171
    3TYR     BB  357   3.043   4.719   2.504  0.2632  0.0141  0.0907
    3TYR    SC1  358   3.264   4.897   2.671  0.0712  0.1998 -0.0555
    3TYR    SC2  359   3.495   4.995   2.768  0.2349 -0.3140  0.1203
    3TYR    SC3  360   3.392   4.767   2.870 -0.3406 -0.1196  0.0220
    1TYR     BB  361   2.514   2.720   4.104 -0.2030 -0.2548  0.1572
    1TYR    SC1  362   2.468   3.002   3.972 -0.2485 -0.0129 -0.2330
    1TYR    SC2  363   2.507   3.268   4.008 -0.0198 -0.0535 -0.1604
    1TYR    SC3  364   2.417   3.175   3.771 -0.2742  0.1021 -0.1300
    2GLY     BB  365   2.401   2.535   4.216  0.0285  0.0991 -0.0847
    3TYR     BB  366   2.129   2.504   4.326 -0.3445  0.0195 -0.1433
    3TYR    SC1  367   2.026   2.425   4.567 -0.2209  0.1421 -0.5672
    3TYR    SC2  368   2.008   2.463   4.834  0.2198 -0.3583 -0.4430
    3TYR    SC3  369   1.802   2.352   4.699  0.0837 -0.3236 -0.2672
    1TYR     BB  370   3.629   2.737   3.839 -0.4085  0.1166  0.3818
    1TYR    SC1  371   3.717   2.420   3.825  0.4249 -0.0342 -0.0743
    1TYR    SC2  372   3.764   2.267   3.608  0.2483 -0.1268 -0.0504
    1TYR    SC3  373   3.868   2.197   3.847  0.3125 -0.1113 -0.0734
    2GLY     BB  374   3.355   2.745   3.716  0.0770 -0.0842  0.2117
    3TYR     BB  375   3.257   2.523   3.703  0.2769 -0.0896  0.1249
    3TYR    SC1  376   3.281   2.242   3.741 -0.4250  0.0690 -0.0789
    3TYR    SC2  377   3.416   2.024   3.657 -0.1916  0.2318 -0.1405
    3TYR    SC3  378   3.294   2.022   3.897 -0.1277  0.0602 -0.1075
    1TYR     BB  379   5.381   2.342   3.719 -0.0802 -0.0187 -0.0635
    1TYR    SC1  380   5.442   2.068   3.811 -0.0422 -0.1354  0.0657
    1TYR    SC2  381   5.302   1.841   3.853  0.0835 -0.2213  0.0230
    1TYR    SC3  382   5.542   1.832   3.727 -0.0653 -0.0253 -0.2895
    2GLY     BB  383   5.375   2.547   3.930  0.1853 -0.1268 -0.1654
    3TYR     BB  384   5.574   2.694   4.093 -0.0560 -0.0202  0.1943
    3TYR    SC1  385   5.706   2.468   4.260  0.0399 -0.1785  0.0823
    3TYR    SC2  386   5.885   2.298   4.370  0.0478 -0.1890  0.0532
    3TYR    SC3  387   5.646   2.206   4.282  0.0770 -0.1961 -0.0199
    1TYR     BB  388   2.679   4.209   2.882 -0.1227  0.0251 -0.1620
    1TYR    SC1  389   2.752   4.207   2.586 -0.1425 -0.1761 -0.0318
    1TYR    SC2  390   2.641   4.103   2.363  0.0448 -0.1575 -0.1374
    1TYR    SC3  391   2.787   4.329   2.348 -0.2077  0.0273  0.0604
    2GLY     BB  392   2.366   3.996   2.931 -0.1970  0.0263 -0.1694
    3TYR     BB  393   2.168   3.857   3.116 -0.1333  0.1857  0.1809
    3TYR    SC1  394   2.202   3.750   3.376 -0.0966  0.2692  0.1404
    3TYR    SC2  395   2.295   3.533   3.506  0.1914  0.0229 -0.4323
    3TYR    SC3  396   2.271   3.768   3.637  0.7190 -0.1320 -0.0047
    1TYR     BB  397   4.027   4.675   4.840  0.2947 -0.0251 -0.0766
    1TYR    SC1  398   3.871   4.566   5.122  0.0763  0.1150  0.1750
    1TYR    SC2  399   3.861   4.390   5.326  0.0867  0.2309  0.2767
    1TYR    SC3  400   3.684   4.592   5.313 -0.0121  0.1353  0.0862
    2GLY     BB  401   4.305   4.799   4.934  0.0204 -0.2821 -0.1165
    3TYR     BB  402   4.450   5.014   4.831  0.4125  0.0820 -0.2222
    3TYR    SC1  403   4.660   5.172   4.947 -0.4256  0.1915  0.1781
    3TYR    SC2  404   4.816   5.213   5.165 -0.0924  0.3379 -0.0770
    3TYR    SC3  405   4.793   5.406   4.977 -0.3086  0.1825 -0.2157
    1TYR     BB  406   3.210   3.808   3.402  0.1213  0.3045  0.2223
    1TYR    SC1  407   3.270   3.926   3.121 -0.0016 -0.1073  0.0465
    1TYR    SC2  408   3.334   3.873   2.864 -0.2056  0.2502 -0.0885
    1TYR    SC3  409   3.109   4.010   2.921 -0.1608  0.1823  0.2853
    2GLY     BB  410   3.193   3.530   3.471  0.0450  0.0150  0.1026
    3TYR     BB  411   3.359   3.354   3.300 -0.1968 -0.1130 -0.0681
    3TYR    SC1  412   3.564   3.547   3.152  0.0311 -0.2440  0.1123
    3TYR    SC2  413   3.738   3.578   2.948 -0.0264 -0.2021  0.0694
    3TYR    SC3  414   3.720   3.767   3.140 -0.1934 -0.0885 -0.0539
    1TYR     BB  415   3.465   3.259   3.821  0.3221 -0.7613 -0.1615
    1TYR    SC1  416   3.648   3.496   3.730 -0.2779  0.0632  0.0928
    1TYR    SC2  417   3.571   3.754   3.725 -0.0914  0.1196 -0.0029
    1TYR    SC3  418   3.827   3.689   3.669 -0.1686 -0.0987 -0.1209
    2GLY     BB  419   3.444   3.125   4.085 -0.2460 -0.1561  0.0050
    3TYR     BB  420   3.493   2.962   4.276 -0.2040 -0.3056  0.1862
    3TYR    SC1  421   3.477   2.785   4.529  0.1626 -0.2147  0.0718
    3TYR    SC2  422   3.479   2.613   4.737  0.1682 -0.1658  0.1124
    3TYR    SC3  423   3.257   2.640   4.587  0.1312 -0.1273  0.1741
    1TYR     BB  424   4.448   5.548   3.483 -0.1784  0.1543 -0.1401
    1TYR    SC1  425   4.639   5.752   3.345 -0.0575 -0.2643 -0.0879
    1TYR    SC2  426   4.768   5.872   3.141 -0.0377  0.2735  0.2178
    1TYR    SC3  427   4.897   5.829   3.375 -0.2169  0.1830  0.3016
    2GLY     BB  428   4.157   5.543   3.390  0.1191 -0.1108 -0.1434
    3TYR     BB  429   4.009   5.426   3.273 -0.2135  0.0722  0.1293
    3TYR    SC1  430   4.086   5.346   2.974 -0.1099 -0.2521  0.1822
    3TYR    SC2  431   4.143   5.335   2.710  0.2109 -0.3336  0.2502
    3TYR    SC3  432   3.949   5.179   2.812 -0.2978  0.0834 -0.0201
    1TYR     BB  433   2.876   4.977   4.000  0.0174 -0.1060  0.0543
    1TYR    SC1  434   2.902   5.251   3.973  0.0214 -0.1190  0.0253
    1TYR    SC2  435   2.785   5.495   3.969  0.1170 -0.0723  0.0530
    1TYR    SC3  436   3.003   5.447   3.817  0.3233 -0.0256  0.3257
    2GLY     BB  437   2.878   4.749   4.109  0.2909  0.1891  0.2685
    3TYR     BB  438   2.830   4.536   4.291  0.0215 -0.2790  0.0909
    3TYR    SC1  439   2.610   4.434   4.451  0.0836  0.4877  0.1499
    3TYR    SC2  440   2.385   4.377   4.590  0.0392  0.0480 -0.0799
    3TYR    SC3  441   2.413   4.290   4.335  0.3258  0.4085 -0.1832
    1TYR     BB  442   2.451   5.103   3.670 -0.2961  0.0181 -0.1923
    1TYR    SC1  443   2.153   5.117   3.841 -0.0663 -0.3390 -0.0518
    1TYR    SC2  444   2.019   5.083   4.073 -0.3098 -0.1241 -0.1550
    1TYR    SC3  445   1.900   5.207   3.866  0.0325  0.0213 -0.2734
    2GLY     BB  446   2.541   5.292   3.574 -0.0876  0.0434 -0.1296
    3TYR     BB  447   2.709   5.384   3.326  0.1844  0.0430  0.1005
    3TYR    SC1  448   2.860   5.187   3.150  0.3139  0.0366 -0.0017
    3TYR    SC2  449   3.088   5.050   3.103  0.0693 -0.4169  0.0801
    3TYR    SC3  450   2.894   5.058   2.915  0.1820  0.0504 -0.0292
    1TYR     BB  451   2.479   2.138   3.418 -0.1235 -0.1098 -0.1889
    1TYR    SC1  452   2.765   2.063   3.460 -0.1041 -0.2145  0.0569
    1TYR    SC2  453   3.019   2.095   3.378 -0.1461  0.1055  0.0392
    1TYR    SC3  454   2.962   1.919   3.574  0.1348  0.2534  0.2627
    2GLY     BB  455   2.391   2.427   3.318 -0.1441 -0.0254 -0.0675
    3TYR     BB  456   2.445   2.601   3.214 -0.1496 -0.0547 -0.3855
    3TYR    SC1  457   2.647   2.745   3.019  0.1368 -0.0526  0.0537
    3TYR    SC2  458   2.812   2.791   2.811  0.1683 -0.1181  0.0636
    3TYR    SC3  459   2.761   2.987   2.988 -0.0179  0.0011 -0.1156
    1TYR     BB  460   5.505   5.123   3.127 -0.1222 -0.2493  0.1250
    1TYR    SC1  461   5.582   5.157   2.814  0.0070  0.1726  0.2569
    1TYR    SC2  462   5.699   5.227   2.581  0.1321  0.0746  0.2890
    1TYR    SC3  463   5.704   4.970   2.662 -0.4135 -0.0057  0.1195
    2GLY     BB  464   5.228   4.975   3.111 -0.2248  0.1361 -0.1468
    3TYR     BB  465   5.006   4.937   2.912 -0.4872 -0.0015 -0.0123
    3TYR    SC1  466   4.863   4.883   2.667  0.0264  0.0843 -0.1617
    3TYR    SC2  467   4.892   4.736   2.441 -0.0188  0.0521 -0.1468
    3TYR    SC3  468   4.661   4.726   2.580 -0.0575  0.2097 -0.1966
    1TYR     BB  469   5.237   3.851   5.125  0.2220  0.0742 -0.2726
    1TYR    SC1  470   5.503   3.935   4.970  0.0497 -0.0642  0.1787
    1TYR    SC2  471   5.746   3.944   5.087  0.0079  0.0120  0.2607
    1TYR    SC3  472   5.717   4.017   4.828  0.0821 -0.0538  0.2338
    2GLY     BB  473   5.008   3.662   5.027  0.2323 -0.0195  0.0115
    3TYR     BB  474   4.889   3.497   4.838 -0.3389 -0.2731  0.2083
    3TYR    SC1  475   4.966   3.427   4.556 -0.0200 -0.0654  0.2669
    3TYR    SC2  476   4.894   3.266   4.351 -0.3670 -0.0557  0.3727
    3TYR    SC3  477   5.139   3.378   4.356 -0.3285 -0.1115  0.0007
    1TYR     BB  478   2.443   3.403   2.941  0.1420  0.1198 -0.1867
    1TYR    SC1  479   2.499   3.281   3.180  0.2311 -0.1939 -0.2012
    1TYR    SC2  480   2.704   3.232   3.348 -0.0052  0.2191  0.2359
    1TYR    SC3  481   2.497   3.060   3.335  0.1353  0.0519  0.1627
    2GLY     BB  482   2.510   3.255   2.706 -0.1717 -0.2544  0.2388
    3TYR     BB  483   2.468   3.021   2.542 -0.0631 -0.5008  0.0876
    3TYR    SC1  484   2.198   3.016   2.407 -0.0270  0.1900 -0.1675
    3TYR    SC2  485   1.943   2.960   2.477  0.1034  0.0666  0.2372
    3TYR    SC3  486   1.996   3.060   2.233 -0.3361  0.1427  0.1638
    1TYR     BB  487   4.677   5.115   3.780  0.0809  0.0598  0.6721
    1TYR    SC1  488   4.454   5.260   3.893  0.0069 -0.2440 -0.0429
    1TYR    SC2  489   4.292   5.279   4.109 -0.2943 -0.2094 -0.2633
    1TYR    SC3  490   4.200   5.349   3.865  0.2980  0.6357 -0.2998
    2GLY     BB  491   4.675   4.898   3.605 -0.0711 -0.3098  0.0077
    3TYR     BB  492   4.780   4.825   3.397 -0.3599 -0.4172  0.2588
    3TYR    SC1  493   4.903   4.595   3.253 -0.0781  0.1958  0.1697
    3TYR    SC2  494   5.034   4.443   3.071 -0.2239  0.1154  0.1287
    3TYR    SC3  495   4.977   4.342   3.315  0.0887  0.2688  0.2724
    1TYR     BB  496   1.629   3.387   4.261  0.2114 -0.0138  0.0412
    1TYR    SC1  497   1.427   3.481   4.047 -0.3170  0.0626  0.1186
    1TYR    SC2  498   1.331   3.525   3.797 -0.1013 -0.2248 -0.0206
    1TYR    SC3  499   1.171   3.418   3.987 -0.2545 -0.0417 -0.0426
    2GLY     BB  500   1.637   3.208   4.428 -0.4980  0.0695 -0.1796
    3TYR     BB  501   1.271   3.116   4.507  0.1528 -0.1899 -0.0694
    3TYR    SC1  502   1.296   2.990   4.220  0.3214  0.0188 -0.2686
    3TYR    SC2  503   1.319   2.924   3.959  0.3382 -0.4013 -0.1715
    3TYR    SC3  504   1.077   2.914   4.079  0.2877  0.0190 -0.2169
    1TYR     BB  505   4.299   5.413   4.606  0.3541 -0.0874  0.0797
    1TYR    SC1  506   4.322   5.491   4.875 -0.0837  0.0873  0.2353
    1TYR    SC2  507   4.298   5.393   5.126 -0.1489  0.0270  0.2059
    1TYR    SC3  508   4.415   5.633   5.085  0.1929 -0.1229  0.2622
    2GLY     BB  509   4.538   5.552   4.461 -0.1765 -0.1598 -0.2247
    3TYR     BB  510   4.527   5.800   4.211  0.0859  0.0507 -0.1525
    3TYR    SC1  511   4.707   5.699   4.020 -0.1200 -0.2742  0.2045
    3TYR    SC2  512   4.832   5.553   3.830 -0.2259 -0.1011 -0.0025
    3TYR    SC3  513   4.843   5.824   3.824 -0.3556 -0.0901  0.1531
    1TYR     BB  514   5.975   2.860   3.931  0.0835 -0.2326  0.0781
    1TYR    SC1  515   6.188   2.659   4.003  0.3039  0.4527  0.1622
    1TYR    SC2  516   6.434   2.555   3.960 -0.0014 -0.3094  0.0640
    1TYR    SC3  517   6.305   2.507   4.192 -0.1736 -0.1607  0.0030
    2GLY     BB  518   5.985   3.088   3.770 -0.1651 -0.1141  0.2128
    3TYR     BB  519   6.167   3.209   3.575  0.0491  0.0555 -0.3068
    3TYR    SC1  520   6.382   3.416   3.667 -0.0635 -0.2292  0.2686
    3TYR    SC2  521   6.511   3.649   3.623  0.2546 -0.4439 -0.0122
    3TYR    SC3  522   6.487   3.553   3.874 -0.0968 -0.0030  0.1402
    1TYR     BB  523   5.176   4.275   3.825  0.3588  0.1314 -0.3213
    1TYR    SC1  524   5.472   4.183   3.793 -0.1703 -0.0253  0.2249
    1TYR    SC2  525   5.709   4.157   3.666 -0.2476 -0.0609  0.0869
    1TYR    SC3  526   5.689   4.092   3.927 -0.1519 -0.2471  0.0502
    2GLY     BB  527   5.014   4.204   4.081 -0.2159 -0.2343 -0.0786
    3TYR     BB  528   5.053   4.394   4.366 -0.0398  0.1043 -0.0813
    3TYR    SC1  529   5.175   4.680   4.357 -0.3567  0.3984 -0.1402
    3TYR    SC2  530   5.363   4.855   4.443  0.0858 -0.0687 -0.0946
    3TYR    SC3  531   5.185   4.930   4.254  0.5172  0.3084 -0.3761
    1TYR     BB  532   5.425   2.840   3.031 -0.2330  0.1255 -0.1064
    1TYR    SC1  533   5.583   2.585   3.106 -0.0212 -0.0887  0.2008
    1TYR    SC2  534   5.782   2.402   3.127  0.1099  0.0207 -0.0411
    1TYR    SC3  535   5.556   2.373   3.272  0.3196 -0.0797  0.2780
    2GLY     BB  536   5.526   2.980   2.847  0.2675 -0.0124 -0.1257
    3TYR     BB  537   5.630   3.014   2.521 -0.2121  0.2150  0.2255
    3TYR    SC1  538   5.664   3.303   2.524  0.4102 -0.2157 -0.2185
    3TYR    SC2  539   5.633   3.566   2.470  0.2205 -0.1515  0.1580
    3TYR    SC3  540   5.880   3.460   2.487  0.2962 -0.0577 -0.2279
    1TYR     BB  541   5.969   3.481   4.694  0.3028  0.0324  0.1730
    1TYR    SC1  542   5.894   3.203   4.847  0.0082 -0.2808 -0.3802
    1TYR    SC2  543   5.763   2.969   4.875  0.3929 -0.4549  0.1444
    1TYR    SC3  544   5.768   3.147   5.079  0.1826 -0.0161 -0.2132
    2GLY     BB  545   6.091   3.457   4.466  0.1542 -0.3995  0.0191
    3TYR     BB  546   6.133   3.375   4.227  0.0577  0.0951  0.2796
    3TYR    SC1  547   6.315   3.199   4.084 -0.2216  0.0921 -0.0801
    3TYR    SC2  548   6.456   3.015   4.222 -0.2091  0.3326  0.2426
    3TYR    SC3  549   6.496   3.044   3.956  0.0383  0.1096  0.2498
    1TYR     BB  550   4.514   3.875   4.767  0.0950 -0.1077 -0.0144
    1TYR    SC1  551   4.427   3.654   4.666  0.0420  0.0807 -0.0571
    1TYR    SC2  552   4.228   3.489   4.590  0.2508 -0.1999 -0.0151
    1TYR    SC3  553   4.484   3.422   4.540  0.3415  0.1306 -0.0220
    2GLY     BB  554   4.713   4.082   4.657 -0.0002 -0.0138 -0.0547
    3TYR     BB  555   4.911   4.178   4.896  0.2850 -0.0667 -0.1648
    3TYR    SC1  556   5.137   4.367   4.875 -0.0193 -0.1254  0.2358
    3TYR    SC2  557   5.282   4.588   4.823 -0.1512 -0.0306  0.2648
    3TYR    SC3  558   5.402   4.370   4.929 -0.0055 -0.0011  0.1649
    1TYR     BB  559   5.121   2.632   3.337 -0.4839 -0.2528  0.1279
    1TYR    SC1  560   4.966   2.886   3.324  0.2590  0.0189 -0.1659
    1TYR    SC2  561   4.813   3.093   3.240  0.2349 -0.1413 -0.5395
    1TYR    SC3  562   4.932   3.103   3.483 -0.2717  0.0386 -0.2815
    2GLY     BB  563   5.378   2.788   3.500 -0.1009 -0.2669  0.1048
    3TYR     BB  564   5.638   2.783   3.594 -0.1153 -0.2085  0.0431
    3TYR    SC1  565   5.841   2.500   3.639 -0.1412  0.1445  0.2761
    3TYR    SC2  566   5.915   2.241   3.631 -0.4288  0.0622  0.1214
    3TYR    SC3  567   5.887   2.366   3.868  0.0214  0.0509  0.1911
    1TYR     BB  568   2.677   2.704   3.639 -0.0076 -0.0256  0.2299
    1TYR    SC1  569   2.849   2.821   3.407 -0.1900  0.0091 -0.1432
    1TYR    SC2  570   3.061   2.742   3.261 -0.1521  0.0701 -0.1214
    1TYR    SC3  571   3.074   2.970   3.406 -0.2451  0.0933 -0.1491
    2GLY     BB  572   2.752   2.440   3.728  0.1727  0.0736 -0.0717
    3TYR     BB  573   2.768   2.209   3.927 -0.3385  0.1358 -0.0536
    3TYR    SC1  574   2.485   2.105   3.934 -0.1783  0.0763  0.0111
    3TYR    SC2  575   2.361   1.880   3.853 -0.0234 -0.0001 -0.0172
    3TYR    SC3  576   2.234   2.052   4.017  0.0152 -0.3347  0.3820
    1TYR     BB  577   4.998   2.618   2.829  0.0543 -0.1374  0.0109
    1TYR    SC1  578   5.001   2.936   2.808 -0.0684 -0.2647  0.1061
    1TYR    SC2  579   5.084   3.182   2.879 -0.2062 -0.2308  0.1560
    1TYR    SC3  580   5.079   3.111   2.618 -0.2439 -0.1522  0.1350
    2GLY     BB  581   4.808   2.402   2.826  0.2389 -0.0915 -0.2291
    3TYR     BB  582   4.555   2.363   2.662  0.0572 -0.1082  0.0736
    3TYR    SC1  583   4.339   2.577   2.613  0.0588  0.0128  0.3457
    3TYR    SC2  584   4.227   2.697   2.398  0.3168 -0.0842  0.1502
    3TYR    SC3  585   4.110   2.716   2.641 -0.0142 -0.0249 -0.0084
    1TYR     BB  586   3.195   4.460   5.221  0.1807  0.2799 -0.0254
    1TYR    SC1  587   3.211   4.635   5.470 -0.0383  0.1942 -0.0148
    1TYR    SC2  588   3.368   4.633   5.690 -0.1854 -0.0627  0.0939
    1TYR    SC3  589   3.102   4.678   5.713 -0.1842  0.0286 -0.0491
    2GLY     BB  590   3.135   4.148   5.163 -0.1790 -0.0407 -0.2941
    3TYR     BB  591   3.083   3.938   5.418  0.1246  0.2843  0.0665
    3TYR    SC1  592   2.820   3.804   5.348  0.1721 -0.0975  0.1799
    3TYR    SC2  593   2.658   3.620   5.462 -0.1031  0.0206 -0.0082
    3TYR    SC3  594   2.621   3.692   5.205  0.2211  0.0896 -0.0409
    1TYR     BB  595   3.699   3.191   2.690  0.1706  0.2617  0.0005
    1TYR    SC1  596   3.971   3.208   2.616  0.0419 -0.0522  0.1870
    1TYR    SC2  597   4.134   3.420   2.578 -0.0666 -0.0423 -0.3021
    1TYR    SC3  598   4.224   3.170   2.531 -0.0846 -0.0664 -0.2107
    2GLY     BB  599   3.480   3.144   2.855  0.1330 -0.0706 -0.0595
    3TYR     BB  600   3.290   2.966   2.916 -0.2156 -0.2899  0.1940
    3TYR    SC1  601   3.248   2.678   2.812  0.1286  0.0723 -0.1534
    3TYR    SC2  602   3.258   2.409   2.822  0.1495  0.0692 -0.2461
    3TYR    SC3  603   3.129   2.533   2.618 -0.1268  0.1280 -0.0445
    1TYR     BB  604   3.261   2.988   2.389  0.0899  0.1416  0.2060
    1TYR    SC1  605   3.492   2.801   2.460 -0.0746 -0.0642  0.2290
    1TYR    SC2  606   3.576   2.559   2.548  0.0398 -0.0416  0.1838
    1TYR    SC3  607   3.748   2.724   2.423 -0.0865 -0.0171  0.0393
    2GLY     BB  608   3.027   3.039   2.433 -0.2273  0.0866 -0.0093
    3TYR     BB  609   2.807   3.319   2.299 -0.0228 -0.0252  0.3181
    3TYR    SC1  610   2.766   3.611   2.435 -0.1205 -0.2131  0.1504
    3TYR    SC2  611   2.916   3.795   2.565  0.0242 -0.2711  0.0697
    3TYR    SC3  612   2.654   3.766   2.625 -0.0480  0.0898 -0.0448
    1TYR     BB  613   2.376   4.796   4.170  0.0021  0.2875  0.2043
    1TYR    SC1  614   2.127   4.705   4.310  0.2706  0.3570  0.4069
    1TYR    SC2  615   1.984   4.542   4.472 -0.0557 -0.1774 -0.3453
    1TYR    SC3  616   1.867   4.757   4.358  0.1978  0.2511  0.1531
    2GLY     BB  617   2.388   4.647   3.895  0.0756 -0.0340 -0.2398
    3TYR     BB  618   2.222   4.637   3.642  0.1956  0.0907 -0.0380
    3TYR    SC1  619   1.944   4.707   3.674  0.0959  0.1743  0.2506
    3TYR    SC2  620   1.769   4.785   3.864 -0.3185  0.0833 -0.0785
    3TYR    SC3  621   1.681   4.655   3.643  0.1789 -0.0282 -0.2253
    1TYR     BB  622   6.010   3.853   3.228 -0.0133  0.0406  0.0730
    1TYR    SC1  623   5.934   3.987   2.968 -0.1294  0.0352 -0.3327
    1TYR    SC2  624   5.865   3.874   2.732 -0.5373  0.0025 -0.2062
    1TYR    SC3  625   5.819   4.137   2.775 -0.3206  0.0440 -0.2142
    2GLY     BB  626   6.127   3.644   3.254  0.2240  0.0508  0.1640
    3TYR     BB  627   6.344   3.433   3.125  0.0351  0.1103 -0.1514
    3TYR    SC1  628   6.423   3.164   3.051 -0.1975  0.1468  0.0640
    3TYR    SC2  629   6.377   2.943   2.902 -0.0732  0.0714  0.1345
    3TYR    SC3  630   6.504   2.921   3.140  0.3186  0.2625 -0.0482
    1TYR     BB  631   4.562   4.306   2.961 -0.0034  0.0033 -0.1824
    1TYR    SC1  632   4.338   4.406   2.813  0.1742  0.2907  0.1319
    1TYR    SC2  633   4.091   4.329   2.735  0.2314 -0.0516  0.2622
    1TYR    SC3  634   4.239   4.489   2.577  0.2480 -0.5161 -0.2284
    2GLY     BB  635   4.756   4.195   2.778 -0.2879  0.2434 -0.2562
    3TYR     BB  636   4.880   4.260   2.587  0.0730  0.1307  0.1752
    3TYR    SC1  637   5.175   4.146   2.523 -0.2406 -0.0164  0.1486
    3TYR    SC2  638   5.443   4.115   2.543 -0.1901  0.3256  0.0693
    3TYR    SC3  639   5.309   4.002   2.338 -0.1030  0.1834  0.0893
    1TYR     BB  640   5.555   4.328   4.434  0.0585 -0.0745 -0.3118
    1TYR    SC1  641   5.637   4.474   4.148 -0.0765 -0.3263 -0.2181
    1TYR    SC2  642   5.541   4.653   3.969  0.0360  0.3136  0.3108
    1TYR    SC3  643   5.808   4.623   4.001  0.0172  0.1111  0.2959
    2GLY     BB  644   5.406   4.077   4.401  0.0079 -0.0180 -0.0101
    3TYR     BB  645   5.228   3.886   4.541  0.1793  0.2859 -0.0883
    3TYR    SC1  646   5.370   3.650   4.666  0.1558  0.2631  0.0350
    3TYR    SC2  647   5.517   3.525   4.854 -0.2145 -0.0916  0.1067
    3TYR    SC3  648   5.485   3.412   4.611 -0.1822  0.0975  0.0122
    1TYR     BB  649   4.613   4.393   3.597  0.0185  0.0637 -0.2598
    1TYR    SC1  650   4.676   4.080   3.690 -0.0527  0.1218  0.2225
    1TYR    SC2  651   4.838   3.872   3.743 -0.2621 -0.0005  0.4085
    1TYR    SC3  652   4.571   3.845   3.773 -0.3136  0.2200  0.1862
    2GLY     BB  653   4.430   4.470   3.397 -0.1088  0.3850  0.0174
    3TYR     BB  654   4.196   4.442   3.267 -0.2092 -0.1627  0.0796
    3TYR    SC1  655   4.003   4.619   3.131 -0.0467 -0.0566 -0.2908
    3TYR    SC2  656   3.900   4.857   3.059  0.1996  0.0728 -0.2301
    3TYR    SC3  657   3.811   4.631   2.941 -0.1459  0.1744 -0.1803
    1TYR     BB  658   2.324   4.967   3.093  0.0211 -0.0019 -0.0763
    1TYR    SC1  659   2.070   4.942   3.299  0.0068  0.1594 -0.0854
    1TYR    SC2  660   1.802   4.948   3.334  0.0433  0.1249  0.2351
    1TYR    SC3  661   1.956   5.151   3.426  0.1131  0.2552 -0.1450
    2GLY     BB  662   2.520   4.764   2.948  0.0352 -0.1076  0.1307
    3TYR     BB  663   2.586   4.709   2.733 -0.1919 -0.2691  0.0615
    3TYR    SC1  664   2.421   4.548   2.518 -0.1633  0.2386 -0.0289
    3TYR    SC2  665   2.233   4.472   2.340 -0.1785 -0.2343  0.1687
    3TYR    SC3  666   2.309   4.303   2.536  0.3494  0.0009  0.1878
    1TYR     BB  667   1.965   3.294   3.209 -0.1214 -0.0867  0.1573
    1TYR    SC1  668   1.819   3.554   3.372  0.0791  0.0885 -0.0405
    1TYR    SC2  669   1.593   3.650   3.483 -0.0905 -0.1028 -0.2124
    1TYR    SC3  670   1.691   3.763   3.259 -0.0775 -0.0887 -0.1995
    2GLY     BB  671   2.037   3.043   3.383 -0.1089  0.0618  0.1404
    3TYR     BB  672   1.963   2.817   3.405 -0.1574  0.0258  0.1846
    3TYR    SC1  673   1.931   2.539   3.217 -0.1697  0.4165 -0.4167
    3TYR    SC2  674   1.683   2.444   3.169 -0.1014  0.0494 -0.1108
    3TYR    SC3  675   1.890   2.372   3.009 -0.0753 -0.2182  0.0375
    1TYR     BB  676   3.934   3.101   3.987 -0.0759  0.0671 -0.1464
    1TYR    SC1  677   4.091   3.375   3.880 -0.1970  0.1175 -0.1169
    1TYR    SC2  678   4.213   3.526   3.693  0.0143  0.0899 -0.0060
    1TYR    SC3  679   4.192   3.617   3.947 -0.1365  0.0631 -0.0074
    2GLY     BB  680   4.000   3.101   4.294 -0.0844 -0.0761 -0.0694
    3TYR     BB  681   3.868   3.101   4.575  0.2018 -0.1699 -0.3196
    3TYR    SC1  682   3.862   2.906   4.792 -0.0416  0.0510 -0.1262
    3TYR    SC2  683   3.936   2.665   4.887  0.0353  0.1880  0.1763
    3TYR    SC3  684   3.759   2.815   5.025 -0.2485  0.1804 -0.1636
    1TYR     BB  685   2.164   2.539   3.768  0.0299 -0.1715 -0.0096
    1TYR    SC1  686   2.041   2.270   3.648 -0.2112 -0.0349  0.0564
    1TYR    SC2  687   1.840   2.183   3.490  0.0094  0.3067 -0.4439
    1TYR    SC3  688   2.023   2.009   3.587 -0.3794  0.0277 -0.1772
    2GLY     BB  689   2.035   2.750   3.912 -0.1156 -0.2165  0.2946
    3TYR     BB  690   1.853   2.875   4.092  0.1064 -0.0303 -0.0288
    3TYR    SC1  691   1.630   2.724   4.222  0.1561 -0.2743 -0.1035
    3TYR    SC2  692   1.561   2.486   4.329 -0.3372 -0.0597  0.0978
    3TYR    SC3  693   1.546   2.711   4.478  0.0170  0.1207 -0.1191
    1TYR     BB  694   4.557   4.182   4.156 -0.1543  0.0224 -0.0727
    1TYR    SC1  695   4.632   3.914   4.205 -0.0357  0.2061 -0.0577
    1TYR    SC2  696   4.620   3.644   4.199 -0.2845  0.2053  0.2058
    1TYR    SC3  697   4.851   3.766   4.262 -0.1949  0.0519  0.1811
    2GLY     BB  698   4.562   4.485   4.148  0.3254 -0.2738  0.1327
    3TYR     BB  699   4.793   4.652   4.004 -0.0977  0.2280 -0.0191
    3TYR    SC1  700   4.734   4.926   4.205 -0.0792 -0.0066  0.1486
    3TYR    SC2  701   4.591   5.012   4.417 -0.0928  0.1060  0.0947
    3TYR    SC3  702   4.723   5.189   4.262  0.0157  0.0132  0.0789
    1TYR     BB  703   3.009   2.728   4.082  0.0450 -0.1336 -0.1537
    1TYR    SC1  704   2.982   2.989   3.960 -0.0176 -0.2751  0.0027
    1TYR    SC2  705   2.953   3.253   4.014  0.0213 -0.2411 -0.1376
    1TYR    SC3  706   2.925   3.163   3.761  0.3433 -0.3219 -0.1505
    2GLY     BB  707   2.922   2.488   4.276 -0.0861 -0.3220  0.1757
    3TYR     BB  708   2.824   2.452   4.516  0.0891  0.0740 -0.2211
    3TYR    SC1  709   2.603   2.216   4.501 -0.0857 -0.1081  0.0543
    3TYR    SC2  710   2.451   1.993   4.502 -0.2884  0.0216 -0.1852
    3TYR    SC3  711   2.453   2.155   4.717 -0.2602 -0.1279 -0.0693
    1TYR     BB  712   4.487   3.106   4.070  0.0577  0.3046  0.0040
    1TYR    SC1  713   4.694   3.218   3.904  0.3256  0.1533  0.1502
    1TYR    SC2  714   4.830   3.450   3.917 -0.6648  0.8031  0.2487
    1TYR    SC3  715   4.675   3.397   3.704  0.0181 -0.1376 -0.0961
    2GLY     BB  716   4.463   2.942   4.322 -0.0983  0.0722 -0.3319
    3TYR     BB  717   4.375   2.865   4.521 -0.0015 -0.1133 -0.1976
    3TYR    SC1  718   4.346   2.630   4.699  0.0237 -0.0923  0.0422
    3TYR    SC2  719   4.495   2.460   4.846  0.1046 -0.0617 -0.0042
    3TYR    SC3  720   4.265   2.375   4.735  0.2175 -0.1851 -0.1503
    1TYR     BB  721   3.785   3.571   4.753 -0.1350  0.0643 -0.1529
    1TYR    SC1  722   3.665   3.644   5.012 -0.1865  0.0188 -0.1222
    1TYR    SC2  723   3.573   3.596   5.260 -0.2493 -0.1808 -0.1814
    1TYR    SC3  724   3.548   3.842   5.153  0.1363  0.0203  0.1561
    2GLY     BB  725   3.621   3.506   4.465  0.1136  0.0633 -0.1237
    3TYR     BB  726   3.790   3.533   4.241 -0.0549 -0.1636 -0.3249
    3TYR    SC1  727   3.742   3.850   4.158 -0.4662 -0.1807  0.0830
    3TYR    SC2  728   3.674   4.084   4.040 -0.2675 -0.1964 -0.0693
    3TYR    SC3  729   3.563   4.014   4.276  0.0459  0.2990  0.2512
    1TYR     BB  730   4.740   4.624   4.648 -0.1078 -0.0163  0.2175
    1TYR    SC1  731   4.895   4.872   4.691  0.4955 -0.4658 -0.4317
    1TYR    SC2  732   5.069   5.007   4.847  0.1289 -0.2433 -0.1958
    1TYR    SC3  733   4.995   5.109   4.609 -0.0254 -0.0991 -0.0889
    2GLY     BB  734   4.485   4.525   4.631  0.0241  0.0520  0.0599
    3TYR     BB  735   4.273   4.339   4.608  0.1195 -0.1434 -0.1915
    3TYR    SC1  736   4.150   4.132   4.485 -0.3902 -0.2122  0.0650
    3TYR    SC2  737   3.978   3.925   4.502 -0.3213 -0.3019 -0.2437
    3TYR    SC3  738   4.189   3.911   4.333  0.0110 -0.2044  0.1428
    1TYR     BB  739   3.421   5.290   4.608 -0.0026 -0.2123 -0.1824
    1TYR    SC1  740   3.368   5.583   4.588 -0.1103  0.1316 -0.3472
    1TYR    SC2  741   3.465   5.814   4.488 -0.0998  0.2329 -0.1111
    1TYR    SC3  742   3.300   5.819   4.702 -0.1099  0.0215 -0.1121
    2GLY     BB  743   3.691   5.272   4.635  0.0301  0.0478  0.0280
    3TYR     BB  744   3.880   5.151   4.740  0.1707  0.0346  0.0646
    3TYR    SC1  745   3.944   5.113   5.059  0.2643 -0.1739 -0.0389
    3TYR    SC2  746   3.923   5.246   5.293 -0.2656 -0.3742  0.0438
    3TYR    SC3  747   3.892   4.978   5.286  0.1089 -0.4198 -0.2146
    1TYR     BB  748   4.235   5.007   3.434 -0.1155  0.0636 -0.0349
    1TYR    SC1  749   4.341   4.935   3.151  0.1449  0.2840  0.1608
    1TYR    SC2  750   4.535   4.816   3.006 -0.0507  0.0952  0.0446
    1TYR    SC3  751   4.299   4.876   2.890  0.0256  0.5739  0.1097
    2GLY     BB  752   4.212   4.800   3.639  0.2954  0.1423 -0.1549
    3TYR     BB  753   4.303   4.757   3.870  0.2593  0.0059  0.0312
    3TYR    SC1  754   4.180   4.849   4.124 -0.0006 -0.0845  0.2654
    3TYR    SC2  755   4.000   5.016   4.236  0.0769  0.0479  0.1955
    3TYR    SC3  756   4.158   4.862   4.393  0.1872  0.2346  0.2716
    1TYR     BB  757   2.199   2.859   2.901  0.3451 -0.0962 -0.4019
    1TYR    SC1  758   1.889   2.862   2.929  0.2355  0.2558 -0.2749
    1TYR    SC2  759   1.645   2.880   3.042  0.2106 -0.0397 -0.2730
    1TYR    SC3  760   1.687   2.977   2.793  0.0120 -0.2413 -0.3901
    2GLY     BB  761   2.261   2.588   2.765 -0.0834 -0.1253  0.2855
    3TYR     BB  762   2.403   2.272   2.789  0.1326 -0.2083  0.1852
    3TYR    SC1  763   2.678   2.295   2.908  0.0395  0.3381 -0.0795
    3TYR    SC2  764   2.899   2.382   3.036  0.2481  0.0364 -0.2194
    3TYR    SC3  765   2.878   2.123   2.964 -0.1511  0.0616 -0.2218
    1TYR     BB  766   3.151   3.308   4.443 -0.0586 -0.0134  0.0443
    1TYR    SC1  767   2.909   3.487   4.391 -0.1191 -0.2027  0.1152
    1TYR    SC2  768   2.745   3.592   4.205 -0.0439  0.0487  0.1858
    1TYR    SC3  769   2.641   3.468   4.421 -0.1320 -0.3285 -0.0614
    2GLY     BB  770   3.050   3.072   4.524 -0.3731 -0.2097  0.1486
    3TYR     BB  771   2.747   2.994   4.454  0.1488  0.1292  0.0790
    3TYR    SC1  772   2.628   2.823   4.704 -0.2602 -0.0214 -0.2615
    3TYR    SC2  773   2.605   2.650   4.910 -0.1542  0.2064 -0.0501
    3TYR    SC3  774   2.400   2.683   4.737 -0.2540  0.0297  0.0312
   7.62875   7.62875   7.62875
