Generated by trjconv : Martini system from ../2_Creating_coordinates/TYR-LYS-TYR_aa.pdb t=   0.00000
 1100
    1TYR     BB    1   7.974   5.336   4.385 -0.2319 -0.2443  0.2177
    1TYR    SC1    2   8.137   5.155   4.252  0.0581  0.1520 -0.1177
    1TYR    SC2    3   8.056   4.908   4.174 -0.0586  0.2290 -0.2438
    1TYR    SC3    4   8.318   4.958   4.214 -0.0382  0.0748 -0.1841
    2LYS     BB    5   7.671   5.334   4.312  0.1469 -0.0480 -0.1224
    2LYS    SC1    6   7.579   5.242   4.633  0.0082 -0.2946 -0.0232
    2LYS    SC2    7   7.634   5.169   4.842  0.0462 -0.1943 -0.1364
    3TYR     BB    8   7.475   5.392   4.095 -0.0953 -0.0863  0.1045
    3TYR    SC1    9   7.141   5.308   4.131 -0.0102 -0.2145 -0.3129
    3TYR    SC2   10   6.984   5.109   4.038 -0.1626 -0.4171  0.3158
    3TYR    SC3   11   6.910   5.247   4.258  0.1385  0.0786  0.1273
    1TYR     BB   12   3.791   4.814   3.541 -0.1284 -0.0532  0.0707
    1TYR    SC1   13   3.942   4.957   3.314 -0.1747  0.0837 -0.1929
    1TYR    SC2   14   4.161   5.095   3.240  0.1149 -0.3308 -0.1565
    1TYR    SC3   15   4.002   4.985   3.053 -0.2373  0.1959 -0.1961
    2LYS     BB   16   3.814   4.847   3.834 -0.1723  0.0591  0.1072
    2LYS    SC1   17   4.013   5.070   3.890  0.2209  0.1047  0.1387
    2LYS    SC2   18   4.190   5.155   3.700 -0.4611  0.2362  0.0895
    3TYR     BB   19   3.734   4.689   4.035  0.0821  0.0452  0.4361
    3TYR    SC1   20   3.473   4.773   4.150 -0.1212 -0.1077  0.0968
    3TYR    SC2   21   3.278   4.713   4.328  0.0799 -0.0603  0.3389
    3TYR    SC3   22   3.372   4.966   4.310  0.0568 -0.0628  0.1572
    1TYR     BB   23   2.800   5.610   3.341  0.0044  0.0440 -0.0856
    1TYR    SC1   24   2.851   5.751   3.072  0.0965  0.2775 -0.1286
    1TYR    SC2   25   2.796   5.982   2.944 -0.1429  0.2447 -0.0907
    1TYR    SC3   26   2.905   5.776   2.808 -0.2166  0.2754 -0.1985
    2LYS     BB   27   3.050   5.526   3.416  0.2064 -0.1778 -0.1605
    2LYS    SC1   28   3.271   5.724   3.272  0.0386 -0.0250 -0.1280
    2LYS    SC2   29   3.518   5.874   3.265  0.3226  0.0450 -0.0098
    3TYR     BB   30   3.116   5.557   3.709 -0.1137  0.0242 -0.0990
    3TYR    SC1   31   3.140   5.252   3.796 -0.0714 -0.1405 -0.0826
    3TYR    SC2   32   3.088   5.069   3.988  0.1068 -0.2215 -0.1080
    3TYR    SC3   33   3.311   5.046   3.838  0.0562 -0.0629 -0.2106
    1TYR     BB   34  -0.413   2.950   5.359 -0.1288  0.1736  0.3560
    1TYR    SC1   35  -0.261   2.967   5.105  0.0744 -0.1738  0.0492
    1TYR    SC2   36  -0.086   3.079   4.932  0.0655 -0.1599  0.0492
    1TYR    SC3   37  -0.115   2.811   4.938 -0.0494 -0.1515 -0.0826
    2LYS     BB   38  -0.544   2.674   5.378  0.0039 -0.4813 -0.1368
    2LYS    SC1   39  -0.792   2.527   5.571  0.1066 -0.3468 -0.0445
    2LYS    SC2   40  -0.788   2.281   5.645  0.3678  0.0800 -0.3983
    3TYR     BB   41  -0.440   2.433   5.169 -0.0611 -0.0643 -0.0230
    3TYR    SC1   42  -0.306   2.300   5.425 -0.2033  0.1007 -0.1718
    3TYR    SC2   43  -0.124   2.131   5.531 -0.1782  0.0135 -0.3486
    3TYR    SC3   44  -0.294   2.265   5.692  0.0182  0.0699 -0.1831
    1TYR     BB   45  -0.136   2.064   3.838 -0.1087 -0.0083 -0.0250
    1TYR    SC1   46  -0.267   2.067   4.153 -0.1749 -0.1238 -0.1440
    1TYR    SC2   47  -0.351   2.178   4.384  0.0141 -0.0833 -0.0931
    1TYR    SC3   48  -0.190   1.962   4.390 -0.0452 -0.1306 -0.1884
    2LYS     BB   49  -0.305   2.033   3.644 -0.2305  0.0609  0.1073
    2LYS    SC1   50  -0.594   2.076   3.759  0.0628  0.2324 -0.2866
    2LYS    SC2   51  -0.790   1.991   3.950 -0.0727  0.0949  0.0636
    3TYR     BB   52  -0.460   1.795   3.403  0.0787 -0.2188  0.1541
    3TYR    SC1   53  -0.781   1.779   3.417 -0.0613 -0.4647  0.2723
    3TYR    SC2   54  -0.979   1.633   3.305 -0.2693  0.1114 -0.1775
    3TYR    SC3   55  -1.013   1.897   3.344  0.1982  0.1208  0.3271
    1TYR     BB   56  -0.962   3.460   4.229 -0.1820 -0.3373  0.0814
    1TYR    SC1   57  -1.149   3.514   4.025  0.0906 -0.2238 -0.2241
    1TYR    SC2   58  -1.244   3.546   3.775 -0.0900 -0.0417 -0.1362
    1TYR    SC3   59  -1.414   3.489   3.978  0.0567 -0.2048 -0.0563
    2LYS     BB   60  -0.644   3.576   4.308  0.2252 -0.2489  0.0363
    2LYS    SC1   61  -0.760   3.757   4.580 -0.0586 -0.1019  0.0278
    2LYS    SC2   62  -0.992   3.799   4.702  0.1495  0.1887 -0.1483
    3TYR     BB   63  -0.384   3.557   4.180  0.1140  0.3455  0.3066
    3TYR    SC1   64  -0.297   3.287   4.069 -0.3332 -0.2221 -0.0726
    3TYR    SC2   65  -0.115   3.089   4.082 -0.1085 -0.0254 -0.1290
    3TYR    SC3   66  -0.366   3.037   3.999 -0.0992 -0.3135  0.0102
    1TYR     BB   67   2.017   6.477   3.717  0.0576  0.1775  0.3726
    1TYR    SC1   68   2.296   6.524   3.783  0.2364 -0.2306 -0.4702
    1TYR    SC2   69   2.430   6.759   3.798 -0.1744 -0.0007  0.2034
    1TYR    SC3   70   2.499   6.553   3.959 -0.3602 -0.0282  0.2504
    2LYS     BB   71   1.932   6.594   3.480  0.1594  0.0040  0.0509
    2LYS    SC1   72   2.165   6.658   3.305  0.0140  0.2820  0.2273
    2LYS    SC2   73   2.422   6.729   3.252 -0.1078  0.1236 -0.0932
    3TYR     BB   74   1.616   6.542   3.406 -0.2239 -0.1213  0.0906
    3TYR    SC1   75   1.382   6.760   3.451 -0.2838 -0.4531 -0.1555
    3TYR    SC2   76   1.273   7.002   3.405  0.2496 -0.1661 -0.0027
    3TYR    SC3   77   1.182   6.850   3.607  0.2786  0.1695  0.2752
    1TYR     BB   78   3.188   5.377   2.897  0.0551  0.0031 -0.0556
    1TYR    SC1   79   2.920   5.282   2.948  0.1229 -0.2340  0.0953
    1TYR    SC2   80   2.657   5.315   2.894  0.1927 -0.0671 -0.1692
    1TYR    SC3   81   2.737   5.121   3.064 -0.0934 -0.1699 -0.1445
    2LYS     BB   82   3.214   5.412   2.598  0.1699 -0.0569 -0.0430
    2LYS    SC1   83   3.489   5.436   2.440  0.0723 -0.2214 -0.0518
    2LYS    SC2   84   3.680   5.570   2.288  0.0170  0.1525 -0.0682
    3TYR     BB   85   3.017   5.300   2.409 -0.2205  0.2369  0.1979
    3TYR    SC1   86   3.062   4.997   2.302  0.1164  0.1570 -0.3254
    3TYR    SC2   87   2.929   4.768   2.250  0.1284  0.1136 -0.1710
    3TYR    SC3   88   3.195   4.763   2.293  0.1343  0.1615 -0.2008
    1TYR     BB   89   8.138   4.061   4.910 -0.1820 -0.0472 -0.3588
    1TYR    SC1   90   8.104   4.149   5.187 -0.0471  0.1731 -0.1484
    1TYR    SC2   91   8.071   4.326   5.388 -0.1452 -0.1844  0.1646
    1TYR    SC3   92   7.980   4.072   5.415  0.4739 -0.4519 -0.0379
    2LYS     BB   93   8.277   4.374   4.737 -0.0670 -0.0771 -0.1166
    2LYS    SC1   94   8.350   4.552   4.966  0.1847 -0.0253  0.1082
    2LYS    SC2   95   8.382   4.638   5.180 -0.2293  0.1165 -0.2999
    3TYR     BB   96   8.186   4.526   4.497  0.0805  0.0447  0.0574
    3TYR    SC1   97   8.340   4.482   4.273 -0.0416  0.0529  0.1228
    3TYR    SC2   98   8.461   4.290   4.124 -0.1860  0.0221  0.0425
    3TYR    SC3   99   8.562   4.540   4.129 -0.0675 -0.0248  0.0495
    1TYR     BB  100  -1.104   2.731   4.695  0.0046 -0.5525 -0.1197
    1TYR    SC1  101  -0.955   2.542   4.509  0.5632  0.3114 -0.0541
    1TYR    SC2  102  -0.949   2.343   4.325 -0.1613  0.2306 -0.0268
    1TYR    SC3  103  -0.741   2.515   4.346  0.1890 -0.1005 -0.5176
    2LYS     BB  104  -1.144   3.019   4.544 -0.0174  0.2074  0.1941
    2LYS    SC1  105  -1.344   3.115   4.343  0.0856  0.0774 -0.2398
    2LYS    SC2  106  -1.571   3.155   4.264 -0.0844  0.0005  0.0287
    3TYR     BB  107  -1.000   3.303   4.663 -0.0586  0.2562 -0.4032
    3TYR    SC1  108  -0.971   3.163   4.983  0.1009  0.3047  0.1137
    3TYR    SC2  109  -1.040   3.249   5.229 -0.5156  0.0704  0.0489
    3TYR    SC3  110  -0.885   3.029   5.201 -0.0168  0.3787  0.2069
    1TYR     BB  111   3.904   2.352   3.230  0.0531  0.1207  0.2053
    1TYR    SC1  112   3.963   2.092   3.179  0.0609 -0.1334  0.3201
    1TYR    SC2  113   4.139   1.914   3.279 -0.4311 -0.5492  0.5046
    1TYR    SC3  114   4.031   1.874   3.035 -0.1922 -0.2264  0.3355
    2LYS     BB  115   3.973   2.618   3.048 -0.4192  0.1844  0.0358
    2LYS    SC1  116   3.690   2.619   2.948 -0.0322  0.1243 -0.0635
    2LYS    SC2  117   3.454   2.611   2.890 -0.0396 -0.1172  0.0642
    3TYR     BB  118   4.216   2.807   2.938  0.0838 -0.0688  0.0844
    3TYR    SC1  119   4.477   2.880   3.105  0.2263 -0.1136 -0.1029
    3TYR    SC2  120   4.479   2.969   3.359 -0.2640  0.2022 -0.1917
    3TYR    SC3  121   4.629   3.092   3.172 -0.0898  0.1245 -0.1061
    1TYR     BB  122   7.315   4.008   4.535 -0.1519 -0.1070  0.0874
    1TYR    SC1  123   7.218   4.285   4.447 -0.1698 -0.1111 -0.0353
    1TYR    SC2  124   7.212   4.396   4.201  0.0262 -0.2195 -0.0914
    1TYR    SC3  125   7.125   4.536   4.414  0.4399  0.1224 -0.1282
    2LYS     BB  126   7.158   3.756   4.390 -0.3164 -0.0775  0.1742
    2LYS    SC1  127   7.103   3.535   4.530  0.3058 -0.0594  0.0256
    2LYS    SC2  128   7.083   3.281   4.519 -0.0303 -0.0151  0.0137
    3TYR     BB  129   6.962   3.914   4.176  0.0149  0.0402  0.1591
    3TYR    SC1  130   6.828   4.094   4.334  0.1006 -0.2726  0.1866
    3TYR    SC2  131   6.696   4.329   4.340 -0.0044 -0.3143 -0.1873
    3TYR    SC3  132   6.781   4.216   4.571 -0.3965 -0.1624  0.0432
    1TYR     BB  133   0.307   2.583   4.797  0.0055 -0.1701 -0.1940
    1TYR    SC1  134   0.593   2.624   4.910 -0.0982  0.3099  0.0289
    1TYR    SC2  135   0.717   2.568   5.145  0.0838 -0.0040 -0.1311
    1TYR    SC3  136   0.853   2.686   4.944  0.1532 -0.3991 -0.3278
    2LYS     BB  137   0.063   2.376   4.983  0.2174 -0.0230  0.1057
    2LYS    SC1  138   0.235   2.357   5.230 -0.0452 -0.0183 -0.0264
    2LYS    SC2  139   0.332   2.321   5.469 -0.0348  0.2017 -0.2347
    3TYR     BB  140  -0.104   2.299   4.787 -0.0556  0.1351  0.1094
    3TYR    SC1  141  -0.215   2.029   4.911  0.2480 -0.0617 -0.0012
    3TYR    SC2  142  -0.372   1.825   4.828  0.0017  0.1090  0.0287
    3TYR    SC3  143  -0.392   1.917   5.081  0.1053  0.1770  0.0128
    1TYR     BB  144   4.075   3.722   4.038  0.0187 -0.1282 -0.1476
    1TYR    SC1  145   4.167   3.700   4.350 -0.1251 -0.0014 -0.3168
    1TYR    SC2  146   4.341   3.640   4.548 -0.0255 -0.0241 -0.4090
    1TYR    SC3  147   4.140   3.816   4.591 -0.1209 -0.1721 -0.2329
    2LYS     BB  148   4.228   3.625   3.836 -0.0931 -0.1382 -0.1781
    2LYS    SC1  149   4.436   3.817   3.761  0.0037 -0.0689  0.2949
    2LYS    SC2  150   4.653   3.945   3.737  0.0042 -0.2700 -0.5450
    3TYR     BB  151   4.155   3.434   3.618 -0.1508 -0.0176  0.0184
    3TYR    SC1  152   4.040   3.401   3.388 -0.0612 -0.1027 -0.0892
    3TYR    SC2  153   3.948   3.396   3.134 -0.1416  0.2705 -0.0754
    3TYR    SC3  154   4.106   3.197   3.225  0.2875  0.3601 -0.5702
    1TYR     BB  155   7.105   4.101   3.000 -0.0558  0.2156 -0.1816
    1TYR    SC1  156   6.807   4.202   2.939 -0.0751  0.3009  0.0617
    1TYR    SC2  157   6.684   4.238   2.702  0.0374 -0.3347 -0.1146
    1TYR    SC3  158   6.538   4.209   2.926 -0.0825 -0.0461 -0.1510
    2LYS     BB  159   7.088   3.789   2.735 -0.1923 -0.2332 -0.0418
    2LYS    SC1  160   7.326   3.859   2.581  0.2741 -0.0708 -0.2981
    2LYS    SC2  161   7.492   3.994   2.489 -0.1370  0.1128 -0.2598
    3TYR     BB  162   6.802   3.770   2.755 -0.1999  0.2760  0.1761
    3TYR    SC1  163   6.606   3.732   2.933  0.0858  0.0384 -0.1740
    3TYR    SC2  164   6.431   3.829   3.116  0.0147 -0.0145 -0.2134
    3TYR    SC3  165   6.536   3.582   3.147  0.4990  0.2099  0.0997
    1TYR     BB  166   2.547   4.957   4.014  0.0794 -0.1737 -0.1315
    1TYR    SC1  167   2.734   4.994   4.260  0.0065 -0.1976  0.0948
    1TYR    SC2  168   2.680   4.904   4.508  0.0219 -0.1055  0.1320
    1TYR    SC3  169   2.937   4.939   4.431  0.0133  0.2311  0.2381
    2LYS     BB  170   2.262   5.073   4.060  0.2151  0.3711 -0.0180
    2LYS    SC1  171   2.187   5.296   4.272  0.2169 -0.1832 -0.0254
    2LYS    SC2  172   2.068   5.405   4.423  0.3608  0.1376  0.0932
    3TYR     BB  173   2.210   5.276   3.782  0.0408 -0.1545 -0.0930
    3TYR    SC1  174   1.944   5.191   3.689  0.1993 -0.0360 -0.0300
    3TYR    SC2  175   1.691   5.156   3.604  0.1616  0.1157  0.0148
    3TYR    SC3  176   1.846   4.942   3.661  0.0728  0.0204 -0.0956
    1TYR     BB  177   8.337   2.854   4.620  0.3126  0.1423  0.3138
    1TYR    SC1  178   8.548   2.614   4.667 -0.0370  0.1122 -0.3988
    1TYR    SC2  179   8.800   2.709   4.652 -0.0650  0.2784  0.0104
    1TYR    SC3  180   8.755   2.457   4.740 -0.0435  0.2437 -0.0765
    2LYS     BB  181   8.457   3.121   4.813 -0.0851 -0.2315  0.3966
    2LYS    SC1  182   8.476   2.923   5.050  0.0023  0.0627 -0.1454
    2LYS    SC2  183   8.442   2.672   5.175 -0.1486  0.0591  0.0142
    3TYR     BB  184   8.574   3.320   4.684  0.1325 -0.1342  0.0238
    3TYR    SC1  185   8.894   3.220   4.617  0.2098 -0.0708 -0.0345
    3TYR    SC2  186   9.089   3.158   4.441  0.2718  0.0607 -0.0138
    3TYR    SC3  187   9.096   3.056   4.691 -0.0386 -0.4705 -0.2006
    1TYR     BB  188   3.187   4.323   2.964 -0.1792 -0.0503  0.1363
    1TYR    SC1  189   3.406   4.144   2.937 -0.0636 -0.1619  0.1516
    1TYR    SC2  190   3.621   4.050   2.804 -0.3177 -0.4445 -0.0785
    1TYR    SC3  191   3.599   4.010   3.071  0.1831  0.1012  0.0712
    2LYS     BB  192   3.208   4.589   2.800  0.1048  0.0734  0.0341
    2LYS    SC1  193   3.479   4.473   2.574  0.2438  0.0828  0.1913
    2LYS    SC2  194   3.648   4.583   2.386  0.0013  0.0170  0.3964
    3TYR     BB  195   3.102   4.811   2.808  0.1273 -0.0328 -0.0766
    3TYR    SC1  196   2.775   4.816   2.722 -0.0826 -0.0215  0.1061
    3TYR    SC2  197   2.623   4.992   2.584 -0.1560  0.1125  0.3519
    3TYR    SC3  198   2.554   4.731   2.591 -0.3319  0.1586  0.3942
    1TYR     BB  199   1.899   3.935   3.755  0.0501 -0.0333 -0.1589
    1TYR    SC1  200   1.931   3.764   3.531  0.1320  0.1692 -0.0499
    1TYR    SC2  201   1.954   3.497   3.569  0.0277  0.1001 -0.4244
    1TYR    SC3  202   1.954   3.599   3.318 -0.0853  0.4399 -0.2942
    2LYS     BB  203   1.647   4.135   3.701 -0.0721  0.0555 -0.1611
    2LYS    SC1  204   1.602   4.119   3.362 -0.0305  0.1844 -0.0869
    2LYS    SC2  205   1.611   4.229   3.134 -0.0105 -0.0418  0.2136
    3TYR     BB  206   1.421   4.193   3.896 -0.3304  0.2354  0.1568
    3TYR    SC1  207   1.402   4.182   4.203 -0.1851 -0.0213  0.0696
    3TYR    SC2  208   1.561   4.245   4.413 -0.0930 -0.2702  0.0780
    3TYR    SC3  209   1.300   4.187   4.455 -0.2150  0.2192  0.0546
    1TYR     BB  210   3.552   3.815   3.845  0.0495 -0.2704 -0.2730
    1TYR    SC1  211   3.461   4.016   4.060  0.0859  0.0057  0.0821
    1TYR    SC2  212   3.230   4.082   4.182  0.1147 -0.1750  0.2413
    1TYR    SC3  213   3.403   4.275   4.107 -0.0114 -0.0476  0.2710
    2LYS     BB  214   3.621   3.583   3.956  0.1890  0.1456  0.0628
    2LYS    SC1  215   3.656   3.580   4.288  0.1274  0.0248  0.0413
    2LYS    SC2  216   3.592   3.735   4.487 -0.0708 -0.3373 -0.1220
    3TYR     BB  217   3.673   3.291   3.888  0.1092  0.0991 -0.2641
    3TYR    SC1  218   3.611   3.282   3.593 -0.4018 -0.3319 -0.1398
    3TYR    SC2  219   3.402   3.270   3.423 -0.3370  0.2008 -0.2811
    3TYR    SC3  220   3.605   3.442   3.376 -0.1225  0.0787  0.1350
    1TYR     BB  221   3.300   5.040   3.279 -0.0656  0.0537  0.0812
    1TYR    SC1  222   3.312   4.813   3.457  0.2204 -0.3757 -0.2789
    1TYR    SC2  223   3.191   4.575   3.419  0.2432 -0.3920 -0.2495
    1TYR    SC3  224   3.333   4.621   3.644  0.2931 -0.3739 -0.2846
    2LYS     BB  225   3.474   5.255   3.373 -0.0845  0.2466  0.2365
    2LYS    SC1  226   3.622   5.389   3.147  0.0236  0.3780  0.1508
    2LYS    SC2  227   3.812   5.424   3.008 -0.4608 -0.2554  0.0793
    3TYR     BB  228   3.717   5.325   3.606 -0.1155 -0.3098 -0.4215
    3TYR    SC1  229   3.595   5.340   3.928 -0.3072 -0.1644 -0.1089
    3TYR    SC2  230   3.657   5.343   4.191  0.3544 -0.2120 -0.2426
    3TYR    SC3  231   3.427   5.455   4.106  0.1926 -0.0631  0.3326
    1TYR     BB  232   0.327   2.896   4.276  0.2608  0.0968  0.0941
    1TYR    SC1  233   0.449   2.963   4.545  0.0948  0.1315 -0.1725
    1TYR    SC2  234   0.588   3.053   4.759  0.2007  0.1233 -0.2371
    1TYR    SC3  235   0.319   3.077   4.753  0.1626 -0.1528  0.0339
    2LYS     BB  236   0.415   2.507   4.296 -0.3085  0.3875 -0.0677
    2LYS    SC1  237   0.607   2.381   4.470 -0.1278  0.0341 -0.3800
    2LYS    SC2  238   0.849   2.283   4.633  0.1028  0.2787 -0.0263
    3TYR     BB  239   0.103   2.377   4.299  0.0900  0.0202  0.0382
    3TYR    SC1  240  -0.060   2.604   4.393  0.3399  0.2758 -0.0042
    3TYR    SC2  241  -0.282   2.746   4.335  0.1500 -0.0828 -0.1941
    3TYR    SC3  242  -0.087   2.857   4.484 -0.0655  0.3083 -0.1859
    1TYR     BB  243   6.983   3.414   3.051 -0.2536 -0.0733  0.0006
    1TYR    SC1  244   6.941   3.144   3.201 -0.0017 -0.1911 -0.0405
    1TYR    SC2  245   6.920   2.989   3.421 -0.2502 -0.1137 -0.0065
    1TYR    SC3  246   7.026   2.888   3.194  0.0313 -0.1866  0.1527
    2LYS     BB  247   7.197   3.568   3.188  0.0312 -0.2300  0.0483
    2LYS    SC1  248   7.326   3.389   3.396  0.0881  0.1631 -0.2560
    2LYS    SC2  249   7.381   3.161   3.519 -0.0678  0.1139 -0.0625
    3TYR     BB  250   7.476   3.705   3.122 -0.0889  0.0428 -0.1820
    3TYR    SC1  251   7.567   3.607   2.855  0.2417 -0.0386  0.1101
    3TYR    SC2  252   7.790   3.633   2.705  0.1073 -0.0432 -0.0961
    3TYR    SC3  253   7.596   3.461   2.630 -0.1230  0.2160 -0.1161
    1TYR     BB  254   5.141   1.281   2.720 -0.3479 -0.2162  0.2934
    1TYR    SC1  255   5.228   1.194   2.981  0.0131  0.4778  0.3288
    1TYR    SC2  256   5.119   1.037   3.172  0.0525 -0.1121 -0.0970
    1TYR    SC3  257   5.385   1.086   3.173  0.0650 -0.1802 -0.0463
    2LYS     BB  258   5.278   1.581   2.601 -0.0563  0.1065 -0.0352
    2LYS    SC1  259   5.544   1.588   2.452  0.1090  0.0696  0.0669
    2LYS    SC2  260   5.800   1.529   2.291 -0.3732  0.0121  0.0881
    3TYR     BB  261   5.077   1.817   2.645  0.1229  0.2037 -0.2288
    3TYR    SC1  262   5.100   2.044   2.841  0.4826  0.0721  0.0406
    3TYR    SC2  263   5.149   2.196   3.059  0.0085  0.0031  0.2093
    3TYR    SC3  264   4.894   2.146   2.983  0.1610 -0.1506 -0.2433
    1TYR     BB  265  -1.205   3.061   3.874 -0.0077  0.1305 -0.1510
    1TYR    SC1  266  -0.905   3.228   3.754  0.0911  0.2000 -0.0457
    1TYR    SC2  267  -0.727   3.292   3.563 -0.2833  0.3372 -0.3651
    1TYR    SC3  268  -0.665   3.331   3.822  0.2883  0.0196 -0.4334
    2LYS     BB  269  -1.267   2.788   3.604  0.1952 -0.3648  0.0991
    2LYS    SC1  270  -1.579   2.822   3.714 -0.2266 -0.2609 -0.0228
    2LYS    SC2  271  -1.763   2.665   3.651 -0.0276  0.0938  0.1125
    3TYR     BB  272  -1.081   2.844   3.402 -0.2418  0.0553  0.1778
    3TYR    SC1  273  -1.024   2.730   3.104  0.1698 -0.0925 -0.1104
    3TYR    SC2  274  -0.987   2.632   2.854 -0.0345 -0.1842 -0.1063
    3TYR    SC3  275  -1.187   2.806   2.903  0.0381 -0.1241 -0.0168
    1TYR     BB  276  -0.790   3.046   4.237 -0.0679 -0.0840  0.4104
    1TYR    SC1  277  -0.808   2.818   4.047  0.1314 -0.0949  0.2233
    1TYR    SC2  278  -0.785   2.811   3.778 -0.1800 -0.0726  0.1911
    1TYR    SC3  279  -0.894   2.601   3.909 -0.1354 -0.0356  0.2879
    2LYS     BB  280  -0.566   3.094   4.475 -0.1441  0.3159  0.1311
    2LYS    SC1  281  -0.643   2.897   4.660  0.0785  0.0090 -0.0242
    2LYS    SC2  282  -0.639   2.758   4.850 -0.0203 -0.1867 -0.0485
    3TYR     BB  283  -0.344   3.269   4.587  0.0029  0.2975  0.0188
    3TYR    SC1  284  -0.473   3.369   4.864  0.1082  0.1888  0.0003
    3TYR    SC2  285  -0.546   3.332   5.121  0.0629  0.0623 -0.0298
    3TYR    SC3  286  -0.659   3.529   4.976 -0.1646 -0.0798 -0.0517
    1TYR     BB  287   7.304   4.360   4.950  0.2356  0.2604  0.1148
    1TYR    SC1  288   7.120   4.067   4.977  0.3660 -0.2696  0.2781
    1TYR    SC2  289   7.127   3.803   5.030  0.2805 -0.2783  0.2475
    1TYR    SC3  290   6.969   3.896   4.832  0.4988 -0.2328  0.0898
    2LYS     BB  291   7.591   4.308   5.160 -0.0299  0.1095 -0.1251
    2LYS    SC1  292   7.487   4.483   5.405  0.1379 -0.0595  0.0801
    2LYS    SC2  293   7.452   4.692   5.592 -0.1262 -0.0233  0.1541
    3TYR     BB  294   7.859   4.588   5.010 -0.2291 -0.0202  0.0613
    3TYR    SC1  295   7.663   4.703   4.822 -0.0126 -0.2698 -0.0258
    3TYR    SC2  296   7.463   4.670   4.643  0.0234 -0.1246 -0.0956
    3TYR    SC3  297   7.700   4.773   4.563  0.0470 -0.0760  0.0322
    1TYR     BB  298   0.317   2.823   5.234 -0.0107  0.0554 -0.2478
    1TYR    SC1  299   0.074   2.799   5.438 -0.2906 -0.0242  0.0187
    1TYR    SC2  300  -0.004   2.882   5.684  0.1164 -0.1460  0.1996
    1TYR    SC3  301  -0.084   2.641   5.591 -0.3029  0.0335  0.0660
    2LYS     BB  302   0.515   3.016   5.235  0.1185 -0.1624 -0.2742
    2LYS    SC1  303   0.743   2.998   5.482  0.0373 -0.0011 -0.0295
    2LYS    SC2  304   0.975   2.926   5.468 -0.3056 -0.2493  0.0303
    3TYR     BB  305   0.442   3.324   5.244  0.0454 -0.4491 -0.0195
    3TYR    SC1  306   0.365   3.517   5.016  0.1843  0.2742 -0.0933
    3TYR    SC2  307   0.458   3.498   4.763  0.0371  0.0264 -0.1330
    3TYR    SC3  308   0.351   3.730   4.850 -0.0605  0.0676 -0.3520
    1TYR     BB  309   1.728   5.052   4.155 -0.1183  0.2076 -0.2250
    1TYR    SC1  310   1.735   5.333   4.077  0.1435  0.1629  0.1936
    1TYR    SC2  311   1.613   5.573   4.085  0.0083  0.1151 -0.1946
    1TYR    SC3  312   1.867   5.554   3.995  0.0609  0.1239 -0.0520
    2LYS     BB  313   1.503   4.837   4.078  0.2249 -0.0941  0.2655
    2LYS    SC1  314   1.478   4.710   4.418 -0.0053 -0.2156 -0.1140
    2LYS    SC2  315   1.418   4.663   4.695 -0.1845  0.1288 -0.4024
    3TYR     BB  316   1.415   4.678   3.938  0.1609  0.1717  0.2057
    3TYR    SC1  317   1.365   4.730   3.615 -0.1115  0.0138 -0.0685
    3TYR    SC2  318   1.443   4.617   3.381 -0.1012  0.0869 -0.1008
    3TYR    SC3  319   1.274   4.828   3.380 -0.1153  0.0761 -0.0410
    1TYR     BB  320   1.565   6.482   3.952 -0.0877 -0.0645  0.2589
    1TYR    SC1  321   1.604   6.761   3.877 -0.3674  0.1285 -0.0550
    1TYR    SC2  322   1.644   7.010   3.974  0.0078  0.0550 -0.0015
    1TYR    SC3  323   1.644   6.968   3.708 -0.1461  0.1226 -0.0135
    2LYS     BB  324   1.263   6.365   3.783  0.2966 -0.0486  0.0395
    2LYS    SC1  325   1.000   6.313   3.993 -0.0527 -0.2472  0.0365
    2LYS    SC2  326   0.823   6.466   4.132 -0.0459 -0.1597  0.0161
    3TYR     BB  327   1.202   6.298   3.544  0.2434  0.2400 -0.3206
    3TYR    SC1  328   1.331   6.115   3.366 -0.0911  0.4998  0.1044
    3TYR    SC2  329   1.544   5.969   3.288 -0.4290 -0.0648  0.1754
    3TYR    SC3  330   1.403   6.109   3.105 -0.1201  0.1630  0.1002
    1TYR     BB  331   2.069   2.692   4.132  0.2267  0.1312  0.1040
    1TYR    SC1  332   1.903   2.929   3.956  0.0946  0.0234  0.1718
    1TYR    SC2  333   1.714   3.119   3.925  0.0646 -0.0286  0.0205
    1TYR    SC3  334   1.950   3.141   3.796  0.1522  0.0211  0.1853
    2LYS     BB  335   1.949   2.460   4.106  0.0990  0.0564 -0.1048
    2LYS    SC1  336   1.875   2.343   4.399  0.1363 -0.0398 -0.1058
    2LYS    SC2  337   1.710   2.169   4.445  0.3071 -0.0325  0.0472
    3TYR     BB  338   1.701   2.365   3.885  0.1503  0.0927 -0.2660
    3TYR    SC1  339   1.466   2.455   4.046  0.1361 -0.2068  0.2813
    3TYR    SC2  340   1.433   2.652   4.228  0.3102  0.1458 -0.0504
    3TYR    SC3  341   1.302   2.418   4.256 -0.0077  0.3516  0.2871
    1TYR     BB  342   5.238   2.496   2.590 -0.1068  0.0860 -0.4362
    1TYR    SC1  343   5.342   2.283   2.403 -0.0931 -0.2556  0.0367
    1TYR    SC2  344   5.485   2.235   2.180  0.0983 -0.0263  0.1053
    1TYR    SC3  345   5.426   2.033   2.349  0.0871 -0.1736 -0.0713
    2LYS     BB  346   5.550   2.636   2.748  0.1266  0.0389 -0.2590
    2LYS    SC1  347   5.663   2.709   2.488 -0.1662  0.1244  0.1969
    2LYS    SC2  348   5.613   2.781   2.284 -0.0161 -0.0614  0.0311
    3TYR     BB  349   5.839   2.569   2.919  0.0214 -0.3212 -0.1830
    3TYR    SC1  350   6.060   2.715   2.800  0.0956  0.0157  0.1230
    3TYR    SC2  351   6.264   2.886   2.846  0.0452  0.1020  0.0280
    3TYR    SC3  352   6.313   2.644   2.736  0.0758  0.1998 -0.1811
    1TYR     BB  353   8.197   2.978   3.122 -0.2119 -0.4302  0.0239
    1TYR    SC1  354   8.292   3.123   2.867 -0.0108  0.0581  0.0155
    1TYR    SC2  355   8.395   3.145   2.618 -0.0885 -0.0774 -0.0300
    1TYR    SC3  356   8.177   3.289   2.687 -0.3150 -0.3400 -0.1754
    2LYS     BB  357   8.311   3.264   3.397 -0.1682  0.1080 -0.2267
    2LYS    SC1  358   8.506   3.478   3.319 -0.4049 -0.0656  0.0600
    2LYS    SC2  359   8.662   3.684   3.212  0.0279 -0.0300 -0.0493
    3TYR     BB  360   8.264   3.293   3.778 -0.3365 -0.1142  0.1067
    3TYR    SC1  361   8.369   3.540   3.813  0.0765 -0.2030  0.2188
    3TYR    SC2  362   8.421   3.772   3.942  0.1054 -0.2538  0.2991
    3TYR    SC3  363   8.390   3.771   3.674 -0.1299 -0.1188  0.3227
    1TYR     BB  364  -0.023   3.292   5.429 -0.0654  0.4154  0.1343
    1TYR    SC1  365  -0.125   3.489   5.164 -0.1822 -0.1736 -0.2391
    1TYR    SC2  366  -0.250   3.693   5.039  0.0998  0.0498 -0.1718
    1TYR    SC3  367  -0.069   3.544   4.906 -0.0237 -0.0885 -0.1885
    2LYS     BB  368  -0.184   3.471   5.641 -0.0308 -0.0654  0.1836
    2LYS    SC1  369  -0.492   3.311   5.626 -0.2943 -0.2640  0.0045
    2LYS    SC2  370  -0.706   3.248   5.645 -0.1757  0.0661  0.0629
    3TYR     BB  371  -0.263   3.848   5.714  0.1226 -0.0723  0.3484
    3TYR    SC1  372   0.044   3.820   5.884 -0.3033 -0.0349 -0.0156
    3TYR    SC2  373   0.272   3.697   5.808 -0.2391  0.0859 -0.0208
    3TYR    SC3  374   0.148   3.623   6.035  0.0341  0.2963  0.2077
    1TYR     BB  375   1.155   5.835   3.944  0.0870 -0.2070 -0.1146
    1TYR    SC1  376   1.330   5.913   4.194  0.1400 -0.2825 -0.2101
    1TYR    SC2  377   1.441   5.877   4.438 -0.1244  0.0044 -0.0377
    1TYR    SC3  378   1.526   6.077   4.278 -0.1179 -0.0308 -0.0789
    2LYS     BB  379   1.338   5.806   3.741  0.3607 -0.0113  0.2202
    2LYS    SC1  380   1.561   5.993   3.809 -0.2255  0.2028  0.0649
    2LYS    SC2  381   1.765   6.030   3.796  0.1599  0.2425  0.2311
    3TYR     BB  382   1.280   5.584   3.474  0.3018  0.1305  0.1220
    3TYR    SC1  383   1.249   5.346   3.639  0.1990 -0.1001  0.1954
    3TYR    SC2  384   1.144   5.131   3.765 -0.1275 -0.0580  0.0072
    3TYR    SC3  385   1.304   5.302   3.900 -0.0866 -0.2682  0.2314
    1TYR     BB  386   9.120   3.878   5.656  0.1049 -0.2054 -0.0738
    1TYR    SC1  387   8.835   3.761   5.781 -0.0125  0.0924  0.1082
    1TYR    SC2  388   8.639   3.801   5.962 -0.2086  0.2489 -0.1301
    1TYR    SC3  389   8.599   3.633   5.755  0.0254  0.0465 -0.0186
    2LYS     BB  390   9.127   4.095   5.361  0.3373 -0.2732  0.0020
    2LYS    SC1  391   9.112   4.388   5.432  0.0201  0.1973 -0.1117
    2LYS    SC2  392   8.978   4.508   5.590  0.1020 -0.1759 -0.3266
    3TYR     BB  393   9.052   3.905   5.179  0.3611  0.1846 -0.1038
    3TYR    SC1  394   9.161   3.650   5.075  0.1574  0.0422  0.1354
    3TYR    SC2  395   9.412   3.549   5.091  0.0350 -0.2497  0.2988
    3TYR    SC3  396   9.218   3.410   4.963 -0.0584 -0.0526  0.2222
    1TYR     BB  397   0.813   4.093   4.184  0.1687 -0.2432 -0.0110
    1TYR    SC1  398   0.552   4.074   4.360  0.0997 -0.0231 -0.0336
    1TYR    SC2  399   0.488   3.826   4.445  0.0366 -0.0112 -0.0450
    1TYR    SC3  400   0.320   4.031   4.491 -0.0238 -0.0143 -0.2439
    2LYS     BB  401   0.872   4.135   3.940  0.2341  0.1344 -0.1747
    2LYS    SC1  402   0.992   4.423   3.894  0.0382  0.1325 -0.2431
    2LYS    SC2  403   0.916   4.651   3.849  0.0284 -0.0355 -0.0683
    3TYR     BB  404   0.984   3.911   3.727 -0.4029 -0.3233  0.0850
    3TYR    SC1  405   1.083   4.085   3.515  0.0520  0.2083 -0.0515
    3TYR    SC2  406   1.076   4.210   3.275  0.3574  0.0228 -0.1639
    3TYR    SC3  407   1.194   4.329   3.488  0.3410  0.0684 -0.1803
    1TYR     BB  408   4.701   2.197   3.844 -0.1290  0.1213  0.2125
    1TYR    SC1  409   4.889   2.047   3.670 -0.0025 -0.1039  0.0900
    1TYR    SC2  410   5.055   2.020   3.459  0.0103 -0.0852  0.0978
    1TYR    SC3  411   5.113   1.897   3.691 -0.0250 -0.1395  0.0779
    2LYS     BB  412   4.735   2.224   4.115 -0.0641  0.1697  0.1967
    2LYS    SC1  413   5.057   2.094   4.176 -0.3231  0.0327  0.3134
    2LYS    SC2  414   5.307   2.109   4.095 -0.0112  0.1178 -0.4463
    3TYR     BB  415   4.773   2.408   4.394 -0.1308 -0.0055 -0.0666
    3TYR    SC1  416   5.039   2.566   4.383 -0.4021 -0.0512 -0.2492
    3TYR    SC2  417   5.205   2.747   4.272  0.0173 -0.1219  0.2194
    3TYR    SC3  418   5.116   2.783   4.525 -0.0190 -0.4886  0.2656
    1TYR     BB  419   7.362   3.108   2.953 -0.2624 -0.0233 -0.1034
    1TYR    SC1  420   7.251   2.852   2.823  0.1344 -0.1316 -0.1126
    1TYR    SC2  421   7.177   2.701   2.613 -0.3038  0.1038 -0.1432
    1TYR    SC3  422   7.167   2.598   2.862  0.0988 -0.1359 -0.2137
    2LYS     BB  423   7.651   3.090   3.037 -0.0701  0.0894 -0.2115
    2LYS    SC1  424   7.807   3.030   2.805 -0.0748 -0.0617 -0.0410
    2LYS    SC2  425   7.916   2.796   2.750 -0.0024  0.2194  0.1867
    3TYR     BB  426   7.807   3.360   3.177 -0.1955 -0.0963  0.1616
    3TYR    SC1  427   8.011   3.566   3.115  0.0842 -0.1101  0.1586
    3TYR    SC2  428   8.177   3.691   2.942 -0.1905  0.0631  0.0120
    3TYR    SC3  429   8.138   3.791   3.190  0.2546 -0.2211  0.2152
    1TYR     BB  430   4.765   1.632   2.979 -0.1371 -0.1757 -0.0605
    1TYR    SC1  431   4.617   1.786   3.182 -0.0177 -0.0420 -0.1125
    1TYR    SC2  432   4.612   2.008   3.336  0.3085  0.1741 -0.3972
    1TYR    SC3  433   4.562   1.767   3.447 -0.2142  0.3922 -0.1103
    2LYS     BB  434   5.074   1.604   3.170  0.1183 -0.2116  0.1644
    2LYS    SC1  435   5.033   1.491   3.416  0.1911 -0.1402  0.3915
    2LYS    SC2  436   4.902   1.420   3.631 -0.1369  0.0734  0.2948
    3TYR     BB  437   5.415   1.627   3.173  0.1056 -0.0742  0.0726
    3TYR    SC1  438   5.493   1.887   3.011  0.2822 -0.1062 -0.0243
    3TYR    SC2  439   5.544   2.078   2.827 -0.1492  0.0657  0.0182
    3TYR    SC3  440   5.584   2.129   3.089  0.0868 -0.0394  0.0056
    1TYR     BB  441   5.945   1.711   3.339  0.3866 -0.1114  0.3040
    1TYR    SC1  442   5.724   1.895   3.494 -0.0637  0.1046 -0.0384
    1TYR    SC2  443   5.501   2.043   3.520 -0.0853  0.1232 -0.2974
    1TYR    SC3  444   5.641   1.971   3.739 -0.0652  0.5354 -0.1637
    2LYS     BB  445   5.968   1.808   3.068 -0.2334  0.0932 -0.2418
    2LYS    SC1  446   6.077   2.110   3.051 -0.0816  0.0757  0.2405
    2LYS    SC2  447   6.294   2.259   3.093  0.1473 -0.0463 -0.2161
    3TYR     BB  448   5.940   1.769   2.730  0.4228  0.1154  0.2831
    3TYR    SC1  449   5.883   2.002   2.551 -0.4785  0.0357  0.2535
    3TYR    SC2  450   5.852   2.262   2.485  0.1030  0.0279 -0.1435
    3TYR    SC3  451   5.900   2.079   2.292 -0.4306 -0.4186  0.1108
    1TYR     BB  452   8.270   3.432   4.291 -0.1917 -0.1599 -0.3130
    1TYR    SC1  453   8.337   3.671   4.451 -0.3972 -0.1036 -0.1438
    1TYR    SC2  454   8.323   3.925   4.360  0.2786 -0.1037 -0.3153
    1TYR    SC3  455   8.512   3.857   4.542 -0.1635 -0.4087  0.0555
    2LYS     BB  456   8.092   3.237   4.422 -0.0591  0.1270  0.2085
    2LYS    SC1  457   8.131   3.016   4.148  0.1658 -0.1079  0.2399
    2LYS    SC2  458   8.056   2.848   3.973 -0.1849 -0.0354  0.2862
    3TYR     BB  459   7.909   3.151   4.609 -0.0375  0.1421  0.1007
    3TYR    SC1  460   7.697   2.976   4.686 -0.1005  0.1450  0.5622
    3TYR    SC2  461   7.442   2.938   4.606  0.0528 -0.0660  0.1361
    3TYR    SC3  462   7.553   2.773   4.788  0.0031 -0.2215  0.0274
    1TYR     BB  463  -0.606   2.765   3.336 -0.1192 -0.1263  0.1062
    1TYR    SC1  464  -0.587   2.732   3.012  0.1450  0.3028  0.1407
    1TYR    SC2  465  -0.374   2.703   2.849 -0.0470 -0.1677 -0.0518
    1TYR    SC3  466  -0.589   2.842   2.765  0.0326 -0.0163 -0.0092
    2LYS     BB  467  -0.410   2.991   3.371  0.3804 -0.1172 -0.0049
    2LYS    SC1  468  -0.248   3.094   3.109  0.2575 -0.0518 -0.0945
    2LYS    SC2  469  -0.182   3.249   2.886  0.2312 -0.0592 -0.1297
    3TYR     BB  470  -0.173   3.008   3.571  0.1453 -0.2390  0.2635
    3TYR    SC1  471   0.082   2.918   3.450  0.0333 -0.2186  0.2540
    3TYR    SC2  472   0.254   2.953   3.243 -0.0071 -0.0285  0.2498
    3TYR    SC3  473   0.250   2.718   3.378  0.1015 -0.1124  0.1104
    1TYR     BB  474   0.767   3.107   4.185 -0.2554  0.0330  0.0772
    1TYR    SC1  475   0.763   3.344   4.347 -0.2700 -0.1797  0.1761
    1TYR    SC2  476   0.892   3.390   4.580  0.1178  0.1478 -0.0898
    1TYR    SC3  477   0.835   3.595   4.413 -0.2291 -0.0699 -0.2529
    2LYS     BB  478   0.866   2.800   4.265 -0.0224  0.0723  0.1651
    2LYS    SC1  479   1.027   2.829   4.548 -0.0575 -0.1233  0.3330
    2LYS    SC2  480   1.188   2.998   4.668  0.1701 -0.0268  0.3499
    3TYR     BB  481   0.872   2.631   4.083  0.0892 -0.0898  0.0957
    3TYR    SC1  482   1.002   2.460   3.838  0.1256  0.4670  0.4107
    3TYR    SC2  483   1.073   2.532   3.587 -0.4776  0.0072  0.0734
    3TYR    SC3  484   1.196   2.324   3.708 -0.0854  0.3198  0.2386
    1TYR     BB  485   5.326   2.995   3.716  0.0105 -0.1439 -0.5237
    1TYR    SC1  486   5.247   2.669   3.728 -0.3246  0.1427 -0.1958
    1TYR    SC2  487   5.222   2.407   3.669 -0.0811  0.1724 -0.4534
    1TYR    SC3  488   5.101   2.508   3.888 -0.2182 -0.1429 -0.3777
    2LYS     BB  489   5.598   3.181   3.646  0.2443  0.1026  0.0827
    2LYS    SC1  490   5.829   2.980   3.656  0.1063  0.2811 -0.0873
    2LYS    SC2  491   6.031   2.992   3.780  0.0237  0.0676  0.2213
    3TYR     BB  492   5.656   3.436   3.752  0.1490  0.0795 -0.0466
    3TYR    SC1  493   5.750   3.696   3.680 -0.1645 -0.1345  0.0212
    3TYR    SC2  494   5.818   3.942   3.594 -0.0664 -0.0503  0.3249
    3TYR    SC3  495   5.934   3.840   3.815 -0.3152 -0.2520  0.3681
    1TYR     BB  496   8.910   3.758   3.667 -0.0976 -0.0957  0.0581
    1TYR    SC1  497   8.890   3.474   3.638 -0.0083  0.1222 -0.1911
    1TYR    SC2  498   8.925   3.276   3.457  0.1793 -0.0276  0.0013
    1TYR    SC3  499   8.758   3.240   3.665  0.0539  0.0992 -0.0757
    2LYS     BB  500   9.031   3.914   3.938 -0.0389 -0.3038 -0.2794
    2LYS    SC1  501   9.164   4.149   3.814 -0.0056  0.1178  0.0243
    2LYS    SC2  502   9.406   4.199   3.699 -0.0842  0.1677  0.0765
    3TYR     BB  503   8.862   3.973   4.182  0.2477 -0.3020 -0.1305
    3TYR    SC1  504   8.958   3.888   4.448 -0.3621  0.1212 -0.0083
    3TYR    SC2  505   8.944   3.911   4.717  0.1342  0.0177  0.0399
    3TYR    SC3  506   9.000   3.672   4.606  0.3596  0.1439 -0.1261
    1TYR     BB  507   8.520   3.766   5.024 -0.1664  0.1580 -0.0040
    1TYR    SC1  508   8.686   3.557   5.185  0.1403 -0.0239  0.0345
    1TYR    SC2  509   8.813   3.320   5.156 -0.0987 -0.1555  0.0286
    1TYR    SC3  510   8.851   3.468   5.379  0.1119 -0.1591 -0.0021
    2LYS     BB  511   8.219   3.586   5.002 -0.1388  0.0161 -0.0400
    2LYS    SC1  512   8.100   3.610   5.307 -0.1219 -0.1220 -0.0085
    2LYS    SC2  513   8.167   3.671   5.546  0.0374  0.1004  0.0139
    3TYR     BB  514   8.047   3.587   4.772 -0.0931  0.2453  0.1082
    3TYR    SC1  515   7.794   3.699   4.904 -0.0958 -0.4895  0.3424
    3TYR    SC2  516   7.544   3.796   4.928  0.0910  0.2368 -0.1991
    3TYR    SC3  517   7.718   3.819   5.133 -0.1480  0.1423  0.0209
    1TYR     BB  518  -0.808   2.371   3.463 -0.0472 -0.0012  0.1153
    1TYR    SC1  519  -0.748   2.254   3.206 -0.1246  0.1998 -0.1600
    1TYR    SC2  520  -0.614   2.291   2.975  0.1543 -0.1143 -0.0588
    1TYR    SC3  521  -0.747   2.061   3.018  0.2818 -0.1485  0.1727
    2LYS     BB  522  -1.135   2.282   3.552  0.2160 -0.1434 -0.3437
    2LYS    SC1  523  -1.325   2.381   3.322 -0.0754  0.2707  0.1955
    2LYS    SC2  524  -1.455   2.366   3.137 -0.0408 -0.3333  0.3773
    3TYR     BB  525  -1.259   2.207   3.818  0.1010 -0.2059 -0.1109
    3TYR    SC1  526  -1.292   2.475   4.001 -0.1393  0.1152 -0.3255
    3TYR    SC2  527  -1.487   2.611   4.128  0.0390 -0.1612  0.2930
    3TYR    SC3  528  -1.231   2.688   4.158  0.0700 -0.0446 -0.1829
    1TYR     BB  529   5.150   2.962   2.453  0.0109 -0.2546 -0.3455
    1TYR    SC1  530   5.028   2.764   2.244 -0.2350 -0.1431  0.1012
    1TYR    SC2  531   4.927   2.554   2.107 -0.3576 -0.0431  0.0343
    1TYR    SC3  532   5.157   2.670   2.026 -0.5481  0.1621 -0.2348
    2LYS     BB  533   4.935   2.903   2.757  0.1276  0.2028 -0.1922
    2LYS    SC1  534   4.713   3.104   2.639 -0.0107  0.1855  0.0887
    2LYS    SC2  535   4.611   3.305   2.589  0.0220  0.0914  0.1136
    3TYR     BB  536   4.880   2.634   2.916  0.1306 -0.0662  0.0539
    3TYR    SC1  537   4.815   2.615   3.189 -0.7007 -0.1361  0.0987
    3TYR    SC2  538   4.852   2.407   3.359  0.2554 -0.0077  0.1172
    3TYR    SC3  539   4.810   2.656   3.456 -0.1721 -0.0688  0.1123
    1TYR     BB  540   2.371   4.761   3.106  0.4584  0.1186  0.1145
    1TYR    SC1  541   2.578   4.607   3.181 -0.2731 -0.1067  0.0596
    1TYR    SC2  542   2.738   4.480   3.360 -0.1514 -0.1318 -0.0647
    1TYR    SC3  543   2.846   4.639   3.170 -0.2986  0.1281  0.0609
    2LYS     BB  544   2.217   5.014   3.227  0.2953  0.1022 -0.0623
    2LYS    SC1  545   1.879   5.026   3.117 -0.0245 -0.0367 -0.1744
    2LYS    SC2  546   1.652   5.076   3.154 -0.0364  0.3365 -0.3054
    3TYR     BB  547   2.283   5.301   3.299 -0.0114  0.0800 -0.0176
    3TYR    SC1  548   1.979   5.455   3.375 -0.2638 -0.1405  0.0738
    3TYR    SC2  549   1.850   5.624   3.541 -0.2075 -0.0323  0.0089
    3TYR    SC3  550   1.720   5.515   3.331 -0.1998  0.0624 -0.0460
    1TYR     BB  551   9.303   4.241   4.301  0.3154  0.2279  0.0515
    1TYR    SC1  552   9.534   4.419   4.134  0.0455 -0.1663  0.0521
    1TYR    SC2  553   9.656   4.660   4.148 -0.0569 -0.1177  0.1321
    1TYR    SC3  554   9.801   4.436   4.107  0.0732 -0.0738  0.3397
    2LYS     BB  555   9.087   4.407   4.373  0.0291 -0.0029  0.1934
    2LYS    SC1  556   9.051   4.612   4.139 -0.0115 -0.2907 -0.1223
    2LYS    SC2  557   9.180   4.763   3.942 -0.0453  0.0150  0.0469
    3TYR     BB  558   8.773   4.327   4.503  0.1646  0.0460 -0.0247
    3TYR    SC1  559   8.671   4.617   4.553  0.1235 -0.0957 -0.0353
    3TYR    SC2  560   8.576   4.870   4.579  0.0257 -0.1612  0.2812
    3TYR    SC3  561   8.840   4.822   4.606 -0.0058 -0.1477  0.7008
    1TYR     BB  562   1.716   7.024   3.199 -0.2665  0.1076 -0.0367
    1TYR    SC1  563   1.675   7.256   2.988  0.7371  0.0304  0.1676
    1TYR    SC2  564   1.620   7.329   2.734 -0.0273  0.0391  0.3054
    1TYR    SC3  565   1.720   7.510   2.907  0.5582  0.0182  0.0211
    2LYS     BB  566   1.806   6.797   3.041 -0.1733  0.3554 -0.2095
    2LYS    SC1  567   1.956   6.881   2.804 -0.1109  0.2524  0.0483
    2LYS    SC2  568   2.055   6.967   2.572 -0.1326 -0.0756  0.1411
    3TYR     BB  569   1.826   6.450   3.001 -0.1610  0.1737 -0.2015
    3TYR    SC1  570   2.101   6.402   2.885 -0.2652  0.2813  0.1779
    3TYR    SC2  571   2.347   6.292   2.888 -0.2717  0.2669  0.3785
    3TYR    SC3  572   2.179   6.242   2.683 -0.1438  0.1982  0.2888
    1TYR     BB  573   2.897   3.472   3.286  0.1403 -0.3109  0.0692
    1TYR    SC1  574   2.918   3.253   3.402 -0.1568 -0.2209 -0.3028
    1TYR    SC2  575   3.012   3.022   3.507 -0.2879 -0.1555 -0.0289
    1TYR    SC3  576   2.813   3.156   3.632 -0.0826  0.2084 -0.0738
    2LYS     BB  577   3.121   3.638   3.223  0.2570  0.0740 -0.0369
    2LYS    SC1  578   3.317   3.532   3.036 -0.0075 -0.2942  0.0477
    2LYS    SC2  579   3.502   3.557   2.831 -0.2068 -0.2360  0.0533
    3TYR     BB  580   3.220   3.771   3.460  0.0517  0.0603  0.3865
    3TYR    SC1  581   3.090   3.617   3.700  0.0683  0.1081  0.1462
    3TYR    SC2  582   3.128   3.397   3.852 -0.0093 -0.0713 -0.0875
    3TYR    SC3  583   2.927   3.567   3.909 -0.0164 -0.1177  0.0298
    1TYR     BB  584   9.414   3.999   4.832 -0.0331  0.1248 -0.0924
    1TYR    SC1  585   9.615   3.959   5.084 -0.0573  0.1268 -0.0299
    1TYR    SC2  586   9.842   3.840   5.168 -0.2542 -0.2685 -0.0265
    1TYR    SC3  587   9.719   4.022   5.325 -0.1378 -0.3250  0.1338
    2LYS     BB  588   9.534   4.113   4.676  0.2307  0.4181  0.0871
    2LYS    SC1  589   9.681   3.972   4.414  0.0053 -0.2813 -0.1900
    2LYS    SC2  590   9.917   3.800   4.379  0.1073 -0.1647 -0.4013
    3TYR     BB  591   9.658   4.395   4.621 -0.0619 -0.2741  0.4696
    3TYR    SC1  592   9.483   4.648   4.576 -0.0730  0.1670 -0.1926
    3TYR    SC2  593   9.437   4.889   4.464 -0.1797  0.1395 -0.2098
    3TYR    SC3  594   9.267   4.793   4.650  0.0724  0.2502  0.0892
    1TYR     BB  595   0.944   4.529   4.392  0.2151 -0.2229  0.2717
    1TYR    SC1  596   0.649   4.599   4.233 -0.1490 -0.1684  0.0896
    1TYR    SC2  597   0.460   4.727   4.091  0.1807  0.1080 -0.1206
    1TYR    SC3  598   0.468   4.457   4.091 -0.0503  0.0950 -0.3206
    2LYS     BB  599   0.871   4.339   4.616  0.1412 -0.1695 -0.0159
    2LYS    SC1  600   0.602   4.395   4.766 -0.1772 -0.3767 -0.2208
    2LYS    SC2  601   0.365   4.551   4.712  0.3252 -0.1083  0.1553
    3TYR     BB  602   0.907   4.032   4.663 -0.2160 -0.1380 -0.0327
    3TYR    SC1  603   0.810   3.943   4.916 -0.0577  0.1572 -0.0915
    3TYR    SC2  604   0.632   3.969   5.116 -0.1489 -0.1464 -0.1263
    3TYR    SC3  605   0.803   3.760   5.114  0.0113 -0.0178 -0.2463
    1TYR     BB  606   0.615   4.271   3.562  0.1027  0.3186  0.1644
    1TYR    SC1  607   0.422   4.460   3.686 -0.0089  0.2729  0.2148
    1TYR    SC2  608   0.182   4.550   3.771 -0.1715  0.0123  0.0471
    1TYR    SC3  609   0.343   4.711   3.629 -0.0793  0.3137  0.4694
    2LYS     BB  610   0.558   4.021   3.419 -0.2611  0.0909  0.0306
    2LYS    SC1  611   0.602   4.148   3.100 -0.2204  0.1640  0.3174
    2LYS    SC2  612   0.670   4.352   2.963  0.0590 -0.0135 -0.0728
    3TYR     BB  613   0.321   3.892   3.517  0.5227  0.2930  0.2737
    3TYR    SC1  614   0.137   3.897   3.232  0.2117 -0.2096 -0.3164
    3TYR    SC2  615  -0.122   3.906   3.154  0.1224 -0.1562 -0.0247
    3TYR    SC3  616   0.058   3.766   3.008 -0.0960 -0.3062 -0.1570
    1TYR     BB  617   4.446   2.033   2.338 -0.1566  0.1783 -0.0982
    1TYR    SC1  618   4.230   2.225   2.474  0.1547 -0.1991  0.2082
    1TYR    SC2  619   4.060   2.167   2.677 -0.1571  0.0180  0.0224
    1TYR    SC3  620   4.069   2.417   2.576  0.2718  0.0083  0.0116
    2LYS     BB  621   4.717   2.099   2.361 -0.2541  0.0194  0.1524
    2LYS    SC1  622   4.962   2.071   2.151 -0.1090  0.2656 -0.0644
    2LYS    SC2  623   4.973   2.122   1.878 -0.2571  0.1658 -0.1387
    3TYR     BB  624   4.763   2.376   2.536 -0.0379  0.0057  0.1622
    3TYR    SC1  625   4.581   2.603   2.448  0.1535 -0.0688 -0.2223
    3TYR    SC2  626   4.523   2.788   2.259 -0.0065 -0.0130 -0.1220
    3TYR    SC3  627   4.360   2.757   2.473  0.1229 -0.1383 -0.0385
    1TYR     BB  628   4.551   2.684   3.893 -0.1170  0.6133  0.3324
    1TYR    SC1  629   4.344   2.496   4.048  0.1687 -0.1422 -0.1019
    1TYR    SC2  630   4.323   2.485   4.317  0.1841 -0.2560 -0.1047
    1TYR    SC3  631   4.216   2.289   4.165  0.1395 -0.1711 -0.1844
    2LYS     BB  632   4.729   2.797   4.014 -0.2436 -0.3575  0.1682
    2LYS    SC1  633   4.678   2.878   4.328 -0.2194 -0.2546 -0.0103
    2LYS    SC2  634   4.531   2.951   4.463  0.3009  0.1779  0.3004
    3TYR     BB  635   4.876   3.041   3.869 -0.1711  0.3541  0.4577
    3TYR    SC1  636   4.972   3.176   4.100 -0.0649  0.0993 -0.2378
    3TYR    SC2  637   5.160   3.180   4.295 -0.4178 -0.0954  0.1270
    3TYR    SC3  638   5.085   3.411   4.174 -0.2465  0.0414  0.2735
    1TYR     BB  639   2.166   2.774   4.623 -0.1725 -0.0954  0.1884
    1TYR    SC1  640   1.886   2.892   4.597 -0.3721  0.0821  0.2617
    1TYR    SC2  641   1.698   2.908   4.403  0.0513  0.0253 -0.1771
    1TYR    SC3  642   1.644   2.780   4.633 -0.3857 -0.1509 -0.3654
    2LYS     BB  643   2.494   2.892   4.507 -0.2367  0.1447  0.1985
    2LYS    SC1  644   2.563   2.677   4.274 -0.1364 -0.1027 -0.0293
    2LYS    SC2  645   2.795   2.470   4.279 -0.1290 -0.0458  0.1238
    3TYR     BB  646   2.562   3.144   4.525 -0.1680 -0.0637  0.4161
    3TYR    SC1  647   2.653   3.377   4.698 -0.3604  0.1083 -0.1854
    3TYR    SC2  648   2.680   3.630   4.786 -0.0553  0.1220 -0.3032
    3TYR    SC3  649   2.719   3.423   4.955  0.0663  0.1520 -0.2933
    1TYR     BB  650   6.189   4.124   4.471  0.1349  0.1183 -0.1362
    1TYR    SC1  651   5.972   4.269   4.595 -0.0890 -0.1747  0.3571
    1TYR    SC2  652   5.727   4.290   4.710 -0.1593 -0.1348  0.2032
    1TYR    SC3  653   5.940   4.413   4.821 -0.3000  0.2335  0.0842
    2LYS     BB  654   6.302   4.002   4.229 -0.0379 -0.2377  0.2133
    2LYS    SC1  655   6.194   4.201   3.997  0.1314  0.3459  0.1326
    2LYS    SC2  656   6.172   4.286   3.774  0.1935  0.2882  0.2141
    3TYR     BB  657   6.440   3.818   4.048  0.0725 -0.0259  0.1713
    3TYR    SC1  658   6.359   3.762   3.769 -0.3346  0.1294  0.0594
    3TYR    SC2  659   6.387   3.579   3.573 -0.1652  0.0881  0.1207
    3TYR    SC3  660   6.291   3.824   3.516 -0.0309  0.1071 -0.0316
    1TYR     BB  661   3.945   4.423   3.314  0.0256 -0.2897 -0.2006
    1TYR    SC1  662   3.722   4.327   3.420  0.0471 -0.1348 -0.2933
    1TYR    SC2  663   3.603   4.257   3.652  0.1313  0.6984  0.0441
    1TYR    SC3  664   3.460   4.264   3.424 -0.0316  0.1679  0.1127
    2LYS     BB  665   3.810   4.483   2.985  0.2745 -0.0045 -0.0848
    2LYS    SC1  666   4.058   4.285   2.884  0.1916  0.2216 -0.0587
    2LYS    SC2  667   4.280   4.172   2.859 -0.2833  0.1884  0.0480
    3TYR     BB  668   3.600   4.692   3.032  0.1321  0.1795  0.5441
    3TYR    SC1  669   3.635   4.934   2.858  0.0022  0.4391 -0.1065
    3TYR    SC2  670   3.525   4.972   2.614 -0.1062  0.1319 -0.1112
    3TYR    SC3  671   3.764   5.084   2.674 -0.0518  0.1654 -0.3760
    1TYR     BB  672   0.088   2.675   3.911 -0.0491  0.0002  0.1573
    1TYR    SC1  673  -0.220   2.559   3.923 -0.0474 -0.0655  0.3221
    1TYR    SC2  674  -0.399   2.549   3.722  0.2892 -0.4853  0.0192
    1TYR    SC3  675  -0.476   2.494   3.975 -0.1592  0.1313  0.0446
    2LYS     BB  676   0.230   2.420   3.784  0.0145 -0.5892 -0.0862
    2LYS    SC1  677   0.537   2.291   3.861  0.0445  0.2087 -0.0792
    2LYS    SC2  678   0.598   2.074   3.761  0.0143  0.1313  0.1292
    3TYR     BB  679   0.150   2.257   3.491  0.2601 -0.1186 -0.1613
    3TYR    SC1  680  -0.067   2.409   3.425  0.1817 -0.4819 -0.0559
    3TYR    SC2  681  -0.316   2.408   3.321  0.0657 -0.1495  0.1953
    3TYR    SC3  682  -0.136   2.593   3.240  0.0510 -0.0407  0.4054
    1TYR     BB  683   7.548   4.037   4.064 -0.0256  0.1593 -0.1787
    1TYR    SC1  684   7.392   3.814   3.936 -0.1187 -0.2239 -0.0139
    1TYR    SC2  685   7.251   3.774   3.709  0.1623 -0.2050 -0.1971
    1TYR    SC3  686   7.290   3.570   3.881  0.0194 -0.2408 -0.2062
    2LYS     BB  687   7.784   4.243   4.033  0.2520  0.2464 -0.0359
    2LYS    SC1  688   8.003   4.117   3.863  0.0177  0.1184  0.0738
    2LYS    SC2  689   8.128   4.215   3.654 -0.1284 -0.1317  0.0202
    3TYR     BB  690   7.805   4.516   4.124 -0.3213  0.0412  0.0253
    3TYR    SC1  691   7.566   4.672   4.116  0.0051 -0.0448 -0.2062
    3TYR    SC2  692   7.459   4.891   4.231  0.0315 -0.1276 -0.0195
    3TYR    SC3  693   7.374   4.812   3.987  0.2313  0.2603 -0.2277
    1TYR     BB  694   4.941   3.984   4.134  0.0711 -0.0326  0.1694
    1TYR    SC1  695   4.990   3.798   4.391 -0.2716  0.3043 -0.1891
    1TYR    SC2  696   4.829   3.699   4.583 -0.1907  0.1942 -0.1772
    1TYR    SC3  697   5.093   3.731   4.631 -0.1317 -0.0272 -0.3348
    2LYS     BB  698   4.640   4.099   4.240 -0.2383 -0.3322  0.1082
    2LYS    SC1  699   4.755   4.242   4.564  0.1874  0.0210  0.2226
    2LYS    SC2  700   4.825   4.152   4.859 -0.2498  0.0627 -0.0058
    3TYR     BB  701   4.378   4.132   4.176 -0.2266 -0.0721 -0.0416
    3TYR    SC1  702   4.091   4.167   4.181 -0.0137  0.4375  0.1553
    3TYR    SC2  703   3.843   4.271   4.150 -0.1392  0.1600  0.1895
    3TYR    SC3  704   3.885   4.071   4.327  0.0114 -0.1067 -0.1343
    1TYR     BB  705   1.186   2.985   3.895 -0.1500 -0.1080 -0.0573
    1TYR    SC1  706   1.330   3.144   4.136 -0.2062 -0.1700  0.1639
    1TYR    SC2  707   1.450   3.259   4.349 -0.0661 -0.3088  0.1626
    1TYR    SC3  708   1.192   3.316   4.291  0.0274  0.0817  0.1022
    2LYS     BB  709   0.998   3.127   3.742 -0.3893  0.2616 -0.4013
    2LYS    SC1  710   1.092   3.059   3.447  0.1890  0.2873  0.1512
    2LYS    SC2  711   1.274   3.111   3.265 -0.1722 -0.3542 -0.1250
    3TYR     BB  712   1.034   3.454   3.870  0.3279 -0.0647 -0.0397
    3TYR    SC1  713   1.305   3.492   3.778 -0.0892 -0.2341 -0.2628
    3TYR    SC2  714   1.509   3.407   3.625  0.1992 -0.0253 -0.0098
    3TYR    SC3  715   1.453   3.670   3.641 -0.0611 -0.0764 -0.0344
    1TYR     BB  716   7.776   4.864   3.135 -0.2602  0.0948 -0.1075
    1TYR    SC1  717   8.077   5.047   3.085 -0.0508 -0.0202 -0.2462
    1TYR    SC2  718   8.262   5.208   2.975  0.2563 -0.1863  0.0037
    1TYR    SC3  719   8.309   5.095   3.215 -0.2184 -0.1550  0.1229
    2LYS     BB  720   7.927   4.638   3.334  0.1348  0.0777  0.0629
    2LYS    SC1  721   8.197   4.570   3.236  0.0997 -0.1406 -0.0720
    2LYS    SC2  722   8.455   4.645   3.250 -0.1310  0.0777 -0.1994
    3TYR     BB  723   7.715   4.551   3.531  0.2441 -0.1501  0.2443
    3TYR    SC1  724   7.647   4.263   3.507 -0.0443 -0.1333  0.4635
    3TYR    SC2  725   7.461   4.104   3.394  0.0549  0.0534  0.0113
    3TYR    SC3  726   7.664   3.995   3.535 -0.0575 -0.1938 -0.0113
    1TYR     BB  727   2.378   5.793   3.067  0.2456 -0.0694 -0.0097
    1TYR    SC1  728   2.438   5.764   2.789 -0.0024  0.0725  0.0232
    1TYR    SC2  729   2.553   5.737   2.546 -0.1498 -0.0028 -0.0394
    1TYR    SC3  730   2.296   5.818   2.566 -0.1740 -0.1053  0.0860
    2LYS     BB  731   2.044   5.901   3.154  0.1840 -0.1981  0.1005
    2LYS    SC1  732   1.872   5.905   2.881 -0.1956 -0.1163  0.1288
    2LYS    SC2  733   1.650   5.988   2.685 -0.0386 -0.1182  0.0733
    3TYR     BB  734   2.030   6.105   3.310 -0.0992  0.3015  0.0108
    3TYR    SC1  735   2.319   6.214   3.383 -0.0717  0.0097 -0.0052
    3TYR    SC2  736   2.538   6.267   3.531  0.1263 -0.2476 -0.1968
    3TYR    SC3  737   2.564   6.202   3.270 -0.1999 -0.0241 -0.2909
    1TYR     BB  738   2.706   4.019   3.991  0.2778 -0.0927 -0.1510
    1TYR    SC1  739   2.917   4.074   3.827 -0.2576  0.2596 -0.3532
    1TYR    SC2  740   2.922   4.157   3.571  0.4282  0.0312 -0.4375
    1TYR    SC3  741   3.129   4.212   3.734  0.1589 -0.1260 -0.0246
    2LYS     BB  742   2.684   4.090   4.324 -0.1348  0.5813  0.0430
    2LYS    SC1  743   2.521   4.348   4.284  0.4963  0.0357 -0.1653
    2LYS    SC2  744   2.425   4.559   4.301  0.1870 -0.2151  0.0557
    3TYR     BB  745   2.844   3.973   4.505 -0.1168 -0.1354  0.0822
    3TYR    SC1  746   3.022   3.710   4.434 -0.0216  0.0087 -0.4204
    3TYR    SC2  747   3.139   3.504   4.306  0.1312 -0.0685 -0.1661
    3TYR    SC3  748   3.049   3.473   4.558 -0.0544  0.1135 -0.2059
    1TYR     BB  749   5.392   3.770   4.069 -0.1391 -0.0681  0.1505
    1TYR    SC1  750   5.378   3.925   3.839  0.0047 -0.2405  0.0622
    1TYR    SC2  751   5.431   4.075   3.619 -0.0379 -0.1236  0.1302
    1TYR    SC3  752   5.176   4.004   3.676 -0.0595  0.0618  0.2766
    2LYS     BB  753   5.561   3.668   4.197 -0.0514  0.1272 -0.0020
    2LYS    SC1  754   5.469   3.524   4.443  0.1401 -0.2468 -0.0133
    2LYS    SC2  755   5.449   3.341   4.602 -0.4135 -0.1855  0.1110
    3TYR     BB  756   5.807   3.828   4.318  0.3043  0.0251 -0.1538
    3TYR    SC1  757   5.770   4.091   4.187 -0.1834  0.0487  0.1818
    3TYR    SC2  758   5.702   4.248   3.980  0.2473  0.0961  0.0658
    3TYR    SC3  759   5.741   4.357   4.224  0.0934  0.0948  0.0922
    1TYR     BB  760   2.104   3.251   4.328  0.2002  0.2783  0.2350
    1TYR    SC1  761   2.310   3.168   4.080  0.3912  0.2044 -0.0106
    1TYR    SC2  762   2.538   3.249   3.955  0.3687 -0.0017 -0.1952
    1TYR    SC3  763   2.430   3.009   3.897  0.3908 -0.1404  0.2784
    2LYS     BB  764   1.960   3.499   4.271 -0.3381 -0.2466 -0.1121
    2LYS    SC1  765   1.866   3.602   4.575  0.2546  0.0739 -0.1850
    2LYS    SC2  766   1.799   3.798   4.741  0.0729  0.2218  0.1469
    3TYR     BB  767   1.723   3.588   4.057  0.2876 -0.0158 -0.0469
    3TYR    SC1  768   1.486   3.714   4.167 -0.2236 -0.2056 -0.0027
    3TYR    SC2  769   1.332   3.738   4.387 -0.0580 -0.3561  0.1335
    3TYR    SC3  770   1.228   3.789   4.143 -0.1691  0.0955  0.2633
    1TYR     BB  771  -0.820   3.217   3.115 -0.2249  0.2693  0.2473
    1TYR    SC1  772  -0.605   3.451   3.114  0.0702 -0.1433 -0.1764
    1TYR    SC2  773  -0.378   3.563   3.210 -0.0037  0.1419 -0.3226
    1TYR    SC3  774  -0.502   3.671   2.995 -0.3616  0.0855 -0.1539
    2LYS     BB  775  -1.175   3.304   3.164  0.1466 -0.0150  0.3206
    2LYS    SC1  776  -1.350   3.234   2.886 -0.0210  0.3104  0.0852
    2LYS    SC2  777  -1.491   3.197   2.675 -0.3585  0.2405  0.2438
    3TYR     BB  778  -1.330   3.273   3.432  0.2782 -0.1281  0.2885
    3TYR    SC1  779  -1.596   3.100   3.314  0.0174  0.1703 -0.0328
    3TYR    SC2  780  -1.777   2.947   3.186  0.2377 -0.0269 -0.1184
    3TYR    SC3  781  -1.521   2.865   3.204  0.2671  0.1238  0.2233
    1TYR     BB  782   7.160   3.647   2.174 -0.2911 -0.1820  0.3300
    1TYR    SC1  783   7.217   3.423   2.383 -0.4083 -0.2542 -0.1384
    1TYR    SC2  784   7.121   3.319   2.613 -0.0241 -0.0357  0.1371
    1TYR    SC3  785   7.293   3.177   2.461  0.0791 -0.0121  0.2299
    2LYS     BB  786   6.882   3.919   2.261  0.1490 -0.1114  0.0643
    2LYS    SC1  787   7.007   4.182   2.271 -0.2444 -0.2688  0.0731
    2LYS    SC2  788   6.855   4.425   2.280  0.1804  0.2135  0.1065
    3TYR     BB  789   6.588   3.926   2.278 -0.0171 -0.0714  0.4241
    3TYR    SC1  790   6.360   3.870   2.469 -0.1229  0.0311  0.1281
    3TYR    SC2  791   6.130   3.736   2.516 -0.1672  0.1665  0.3080
    3TYR    SC3  792   6.244   3.884   2.711  0.0384  0.1553  0.2004
    1TYR     BB  793   2.757   5.911   3.732  0.1569 -0.1927  0.0426
    1TYR    SC1  794   2.998   6.042   3.555  0.0473 -0.2908 -0.3453
    1TYR    SC2  795   3.007   6.246   3.380 -0.2180 -0.0571 -0.0998
    1TYR    SC3  796   3.230   6.174   3.515 -0.2006  0.3362  0.0982
    2LYS     BB  797   2.694   6.077   4.106 -0.2729  0.2202 -0.1214
    2LYS    SC1  798   2.919   6.270   4.076  0.0636  0.2562 -0.1169
    2LYS    SC2  799   3.007   6.467   4.033 -0.2304 -0.1599  0.0437
    3TYR     BB  800   2.492   6.191   4.358  0.2031  0.2147 -0.1990
    3TYR    SC1  801   2.187   6.186   4.241  0.1067  0.0168 -0.0233
    3TYR    SC2  802   1.993   6.001   4.269 -0.0734  0.2430  0.3100
    3TYR    SC3  803   1.928   6.257   4.218  0.1640  0.2537  0.0326
    1TYR     BB  804   5.216   4.404   4.071 -0.2631  0.2021  0.1105
    1TYR    SC1  805   5.318   4.270   4.283  0.2884  0.2749  0.2973
    1TYR    SC2  806   5.247   4.266   4.544 -0.1904 -0.0712  0.1802
    1TYR    SC3  807   5.431   4.091   4.451 -0.2260 -0.1380  0.2344
    2LYS     BB  808   4.902   4.521   4.132  0.2557  0.2875  0.0261
    2LYS    SC1  809   4.990   4.828   4.195 -0.1170 -0.1105  0.0891
    2LYS    SC2  810   5.115   4.980   4.340  0.2329 -0.0837  0.0524
    3TYR     BB  811   4.741   4.433   3.917 -0.3869  0.1198  0.1963
    3TYR    SC1  812   4.754   4.454   3.642 -0.5815 -0.2567 -0.1050
    3TYR    SC2  813   4.795   4.553   3.394 -0.2277  0.1927  0.1140
    3TYR    SC3  814   4.901   4.315   3.462  0.2003  0.3360 -0.0013
    1TYR     BB  815   0.714   3.451   3.526  0.1233  0.1977 -0.1415
    1TYR    SC1  816   0.926   3.560   3.395 -0.2288  0.0399  0.2389
    1TYR    SC2  817   1.170   3.589   3.282 -0.2756 -0.4216 -0.0110
    1TYR    SC3  818   0.976   3.770   3.231 -0.0250 -0.1064  0.1063
    2LYS     BB  819   0.447   3.461   3.306  0.1260  0.0218  0.2641
    2LYS    SC1  820   0.549   3.692   3.080 -0.0585  0.3797 -0.0263
    2LYS    SC2  821   0.612   3.760   2.834  0.1959  0.1785  0.1043
    3TYR     BB  822   0.115   3.423   3.313 -0.1163  0.2282 -0.2241
    3TYR    SC1  823  -0.064   3.531   3.539 -0.0008  0.1494 -0.2665
    3TYR    SC2  824  -0.289   3.482   3.679  0.1248 -0.1057 -0.1462
    3TYR    SC3  825  -0.088   3.624   3.791  0.2188 -0.2963 -0.0672
    1TYR     BB  826  -0.748   3.828   3.885 -0.0139 -0.0140 -0.0424
    1TYR    SC1  827  -1.013   3.918   3.936 -0.0286 -0.1300  0.0417
    1TYR    SC2  828  -1.272   3.994   3.949  0.0564  0.1866 -0.0158
    1TYR    SC3  829  -1.142   3.921   4.173 -0.0990 -0.0429  0.0034
    2LYS     BB  830  -0.631   3.837   3.587  0.0085  0.1146  0.1443
    2LYS    SC1  831  -0.925   3.743   3.433  0.2999  0.2686 -0.1971
    2LYS    SC2  832  -1.113   3.787   3.276 -0.0376  0.1374  0.2072
    3TYR     BB  833  -0.637   4.115   3.422  0.0452  0.0643 -0.0936
    3TYR    SC1  834  -0.503   4.154   3.172 -0.3298  0.1364 -0.3062
    3TYR    SC2  835  -0.372   4.207   2.942  0.0743 -0.3453 -0.2071
    3TYR    SC3  836  -0.318   4.351   3.164  0.0402 -0.1974 -0.2926
    1TYR     BB  837   6.675   4.206   3.835 -0.0923  0.0807  0.0225
    1TYR    SC1  838   6.798   4.463   3.881 -0.1207 -0.0235 -0.0190
    1TYR    SC2  839   6.893   4.664   4.034 -0.1999  0.0795 -0.1037
    1TYR    SC3  840   6.873   4.696   3.767 -0.1283 -0.0739 -0.1284
    2LYS     BB  841   6.607   4.185   3.529  0.0376  0.2209 -0.0091
    2LYS    SC1  842   6.582   4.433   3.410  0.2297 -0.1313 -0.0579
    2LYS    SC2  843   6.612   4.616   3.244  0.0086 -0.0593  0.3556
    3TYR     BB  844   6.858   3.963   3.389  0.0464  0.1086 -0.0290
    3TYR    SC1  845   6.819   3.687   3.511 -0.0602 -0.0151 -0.0232
    3TYR    SC2  846   6.852   3.572   3.753  0.2664  0.0383 -0.0374
    3TYR    SC3  847   6.793   3.420   3.539  0.1084 -0.0253  0.0495
    1TYR     BB  848   2.136   7.077   3.574  0.0600 -0.0342 -0.0531
    1TYR    SC1  849   2.216   7.217   3.337  0.2354  0.1810  0.1210
    1TYR    SC2  850   2.115   7.245   3.088  0.1202 -0.2400  0.1094
    1TYR    SC3  851   2.356   7.348   3.148  0.0930 -0.0203 -0.1348
    2LYS     BB  852   2.110   7.229   3.835 -0.3539 -0.0804  0.0605
    2LYS    SC1  853   2.317   7.485   3.762  0.1836 -0.0025 -0.0307
    2LYS    SC2  854   2.450   7.612   3.582 -0.1365 -0.0827  0.1452
    3TYR     BB  855   2.167   7.185   4.117  0.3160  0.3904  0.1171
    3TYR    SC1  856   1.987   6.920   4.190  0.4431  0.1365  0.6058
    3TYR    SC2  857   2.038   6.662   4.132 -0.0311  0.1592 -0.0814
    3TYR    SC3  858   1.821   6.727   4.279 -0.0374  0.1768 -0.0987
    1TYR     BB  859   5.324   2.636   3.227 -0.1707  0.4419 -0.0976
    1TYR    SC1  860   5.571   2.527   3.408 -0.3141  0.0545  0.0613
    1TYR    SC2  861   5.802   2.388   3.390 -0.0081  0.5618 -0.2884
    1TYR    SC3  862   5.704   2.456   3.632  0.0770  0.1503 -0.1278
    2LYS     BB  863   5.288   2.929   3.159  0.2538  0.0487  0.3657
    2LYS    SC1  864   5.397   3.032   2.870 -0.0382 -0.2103 -0.1222
    2LYS    SC2  865   5.500   3.199   2.746 -0.0621 -0.3206 -0.4716
    3TYR     BB  866   5.077   3.101   3.355  0.1301 -0.0369  0.1223
    3TYR    SC1  867   4.995   3.328   3.163 -0.1806  0.1030  0.0457
    3TYR    SC2  868   4.917   3.488   2.961 -0.1204 -0.2160 -0.2426
    3TYR    SC3  869   5.180   3.437   2.999 -0.1409 -0.2687 -0.1704
    1TYR     BB  870   2.331   4.717   3.667 -0.1201  0.1262  0.2150
    1TYR    SC1  871   2.105   4.574   3.550 -0.1554  0.1805  0.1573
    1TYR    SC2  872   1.842   4.511   3.543 -0.0288 -0.4116 -0.1502
    1TYR    SC3  873   1.987   4.505   3.316  0.2264  0.0999 -0.0197
    2LYS     BB  874   2.504   4.493   3.796 -0.2942  0.0090 -0.2112
    2LYS    SC1  875   2.789   4.569   3.910  0.1212 -0.0331 -0.0446
    2LYS    SC2  876   2.976   4.522   4.087  0.0265 -0.0481 -0.1709
    3TYR     BB  877   2.297   4.263   3.840 -0.2529 -0.1773 -0.2103
    3TYR    SC1  878   2.029   4.379   3.970  0.0662  0.1986 -0.0595
    3TYR    SC2  879   1.819   4.455   4.120  0.0661  0.1933 -0.0569
    3TYR    SC3  880   1.974   4.641   4.001  0.0148  0.1955 -0.1214
    1TYR     BB  881   2.384   4.431   4.789 -0.2023  0.1298 -0.1004
    1TYR    SC1  882   2.119   4.457   4.717  0.0592 -0.2936 -0.1845
    1TYR    SC2  883   1.867   4.444   4.812  0.1815 -0.1170  0.1846
    1TYR    SC3  884   1.910   4.480   4.549 -0.1763 -0.1645  0.1142
    2LYS     BB  885   2.491   4.148   4.828  0.1621 -0.0594  0.0047
    2LYS    SC1  886   2.748   4.056   5.002 -0.0749  0.0243 -0.2120
    2LYS    SC2  887   2.857   3.895   5.210 -0.0102  0.0336 -0.0073
    3TYR     BB  888   2.279   3.971   4.711  0.1192  0.0247 -0.2095
    3TYR    SC1  889   2.113   4.055   4.475 -0.1253 -0.1654  0.0822
    3TYR    SC2  890   1.912   4.030   4.297 -0.0690 -0.1086  0.0098
    3TYR    SC3  891   2.167   3.986   4.219 -0.0401 -0.0403  0.0652
    1TYR     BB  892   6.110   3.439   4.032  0.2055 -0.0112 -0.1920
    1TYR    SC1  893   6.134   3.492   4.342  0.4148  0.0432  0.0885
    1TYR    SC2  894   6.167   3.579   4.596  0.2496  0.0999  0.0925
    1TYR    SC3  895   5.959   3.418   4.536  0.1829  0.2339 -0.0420
    2LYS     BB  896   6.428   3.310   3.985 -0.0085  0.2464  0.4972
    2LYS    SC1  897   6.502   3.083   3.759 -0.1128 -0.0119 -0.3333
    2LYS    SC2  898   6.622   2.910   3.779  0.1127  0.1083  0.3808
    3TYR     BB  899   6.713   3.428   4.173 -0.3355  0.0121 -0.3927
    3TYR    SC1  900   6.628   3.628   4.417 -0.1583  0.3944 -0.2003
    3TYR    SC2  901   6.640   3.582   4.682 -0.0054  0.2947 -0.2229
    3TYR    SC3  902   6.591   3.831   4.590  0.0809  0.3579 -0.1016
    1TYR     BB  903   4.324   4.681   3.586 -0.4239  0.1171  0.1212
    1TYR    SC1  904   4.370   4.710   3.270 -0.2202 -0.0796 -0.0165
    1TYR    SC2  905   4.548   4.786   3.080 -0.1172 -0.2378  0.0141
    1TYR    SC3  906   4.328   4.648   3.010  0.0156 -0.4613  0.0271
    2LYS     BB  907   4.179   4.507   3.746  0.0715  0.0421 -0.0256
    2LYS    SC1  908   4.259   4.573   4.049 -0.1873 -0.0046 -0.0071
    2LYS    SC2  909   4.227   4.661   4.268  0.0371 -0.0163 -0.0569
    3TYR     BB  910   4.120   4.182   3.719 -0.1148  0.3065  0.2280
    3TYR    SC1  911   3.973   3.981   3.544 -0.4861 -0.1088 -0.2407
    3TYR    SC2  912   3.817   3.791   3.434 -0.3788 -0.2339 -0.1795
    3TYR    SC3  913   4.013   3.905   3.289 -0.2653 -0.3680 -0.1354
    1TYR     BB  914   1.029   4.966   4.207 -0.0744 -0.0325  0.2768
    1TYR    SC1  915   1.215   5.208   4.344  0.1359 -0.0863 -0.0007
    1TYR    SC2  916   1.237   5.471   4.401 -0.1514 -0.1266  0.3489
    1TYR    SC3  917   1.452   5.308   4.428  0.0688  0.0838 -0.0095
    2LYS     BB  918   0.793   5.149   4.052 -0.2308 -0.0563 -0.2482
    2LYS    SC1  919   0.665   5.071   3.757 -0.3003 -0.1365  0.0187
    2LYS    SC2  920   0.614   5.129   3.490  0.2450 -0.1304  0.1212
    3TYR     BB  921   0.857   5.476   4.054  0.2323 -0.0185 -0.1499
    3TYR    SC1  922   0.781   5.599   3.763 -0.2050  0.1110  0.0066
    3TYR    SC2  923   0.746   5.802   3.589  0.1583  0.2286  0.0601
    3TYR    SC3  924   0.822   5.559   3.499  0.0396  0.2023  0.0280
    1TYR     BB  925   2.902   3.010   4.143  0.0956  0.4175 -0.0942
    1TYR    SC1  926   2.987   2.933   4.426  0.0900 -0.2588 -0.0886
    1TYR    SC2  927   3.018   3.045   4.667 -0.5084 -0.0033 -0.1096
    1TYR    SC3  928   2.959   2.782   4.647 -0.2064 -0.0846 -0.0013
    2LYS     BB  929   3.169   2.851   4.002  0.1200 -0.0829 -0.1097
    2LYS    SC1  930   2.985   2.641   3.878 -0.2734 -0.0417  0.2479
    2LYS    SC2  931   2.987   2.487   3.639  0.0432 -0.2039 -0.1013
    3TYR     BB  932   3.455   2.805   3.920  0.3776  0.2816 -0.1003
    3TYR    SC1  933   3.473   2.732   3.610 -0.1515 -0.1155 -0.1244
    3TYR    SC2  934   3.402   2.701   3.350  0.0620 -0.0843 -0.1899
    3TYR    SC3  935   3.546   2.510   3.474  0.1944  0.0227 -0.1770
    1TYR     BB  936   7.063   4.504   3.314 -0.1399  0.0908  0.0767
    1TYR    SC1  937   7.151   4.350   3.561 -0.2352 -0.0997 -0.1451
    1TYR    SC2  938   7.149   4.199   3.786 -0.0179 -0.0113 -0.0816
    1TYR    SC3  939   7.316   4.412   3.766 -0.1883  0.1110 -0.2430
    2LYS     BB  940   7.337   4.605   3.218  0.1100 -0.2813 -0.1260
    2LYS    SC1  941   7.388   4.853   3.431  0.1450  0.1799  0.3305
    2LYS    SC2  942   7.267   5.014   3.530 -0.0974  0.2659 -0.0614
    3TYR     BB  943   7.482   4.492   3.028 -0.2401 -0.0784  0.7015
    3TYR    SC1  944   7.606   4.242   2.995 -0.0397  0.2178  0.0931
    3TYR    SC2  945   7.752   4.053   2.871 -0.2817 -0.0553  0.2133
    3TYR    SC3  946   7.853   4.180   3.087  0.0023  0.1772 -0.0444
    1TYR     BB  947   2.626   3.829   3.482 -0.4250  0.2587  0.2431
    1TYR    SC1  948   2.390   4.009   3.413 -0.0581  0.1889 -0.0221
    1TYR    SC2  949   2.335   4.263   3.340 -0.2398  0.1355 -0.0791
    1TYR    SC3  950   2.178   4.061   3.254  0.0420 -0.0257 -0.2350
    2LYS     BB  951   2.494   3.594   3.588 -0.1303  0.1633  0.0367
    2LYS    SC1  952   2.414   3.355   3.446  0.0789  0.2677 -0.2937
    2LYS    SC2  953   2.275   3.150   3.414 -0.0885 -0.2580 -0.0047
    3TYR     BB  954   2.335   3.700   3.843 -0.2843 -0.1383 -0.1263
    3TYR    SC1  955   2.428   3.646   4.136 -0.0513  0.1250  0.0366
    3TYR    SC2  956   2.420   3.642   4.406  0.0097 -0.3456  0.0405
    3TYR    SC3  957   2.638   3.551   4.275 -0.0738 -0.2524 -0.1704
    1TYR     BB  958   9.311   3.655   4.235 -0.2563  0.2134  0.2050
    1TYR    SC1  959   9.417   3.545   4.533 -0.0102  0.1990  0.0139
    1TYR    SC2  960   9.629   3.527   4.698 -0.1249  0.0823  0.1530
    1TYR    SC3  961   9.515   3.303   4.602  0.0425  0.1481 -0.2256
    2LYS     BB  962   9.108   3.466   4.079  0.2810  0.1525  0.1430
    2LYS    SC1  963   9.267   3.264   3.935  0.1111 -0.2459 -0.0015
    2LYS    SC2  964   9.411   3.150   3.792 -0.0355  0.1177  0.2397
    3TYR     BB  965   8.754   3.511   4.187 -0.1036  0.2141  0.0506
    3TYR    SC1  966   8.704   3.223   4.129 -0.2797 -0.1108  0.2251
    3TYR    SC2  967   8.638   2.981   4.029 -0.1479 -0.1642  0.2642
    3TYR    SC3  968   8.686   3.008   4.293 -0.3490 -0.0549  0.2921
    1TYR     BB  969   0.548   3.700   3.936  0.1233 -0.4003 -0.1912
    1TYR    SC1  970   0.345   3.894   4.008 -0.1753 -0.2547  0.0485
    1TYR    SC2  971   0.091   3.882   4.097 -0.1761 -0.0171  0.0845
    1TYR    SC3  972   0.185   4.111   3.989  0.1234  0.0087  0.3790
    2LYS     BB  973   0.388   3.421   3.985 -0.0492 -0.0570 -0.4368
    2LYS    SC1  974   0.240   3.395   4.281  0.0551  0.0794  0.0705
    2LYS    SC2  975   0.050   3.512   4.401  0.1801 -0.1345 -0.1473
    3TYR     BB  976   0.252   3.214   3.796  0.0299 -0.1115  0.1498
    3TYR    SC1  977   0.465   2.983   3.712 -0.0587 -0.2282  0.1005
    3TYR    SC2  978   0.635   2.774   3.698 -0.1230 -0.2725 -0.0412
    3TYR    SC3  979   0.608   2.939   3.487 -0.0652 -0.1140  0.0735
    1TYR     BB  980   5.174   3.507   3.724  0.1810 -0.0878 -0.1960
    1TYR    SC1  981   5.338   3.573   3.430  0.1364  0.1409 -0.1960
    1TYR    SC2  982   5.453   3.768   3.282  0.1901  0.1008 -0.2072
    1TYR    SC3  983   5.536   3.511   3.257  0.4127  0.1344  0.1106
    2LYS     BB  984   4.881   3.525   3.693  0.0770 -0.2443  0.1400
    2LYS    SC1  985   4.883   3.744   3.422 -0.1258 -0.3406 -0.1024
    2LYS    SC2  986   4.960   3.907   3.227 -0.1847 -0.0828  0.2184
    3TYR     BB  987   4.646   3.350   3.580 -0.0386 -0.0701 -0.0854
    3TYR    SC1  988   4.492   3.457   3.310 -0.2746 -0.1271 -0.1411
    3TYR    SC2  989   4.474   3.520   3.048  0.0560  0.4074 -0.0500
    3TYR    SC3  990   4.396   3.699   3.236 -0.1514  0.0421  0.2252
    1TYR     BB  991  -0.145   4.068   3.629  0.1166 -0.0293 -0.2139
    1TYR    SC1  992   0.018   4.324   3.452 -0.3164 -0.0214  0.1499
    1TYR    SC2  993   0.041   4.544   3.298 -0.5400 -0.2862 -0.2846
    1TYR    SC3  994   0.156   4.313   3.220 -0.5683 -0.4035  0.0066
    2LYS     BB  995  -0.312   4.205   3.851  0.0258 -0.1245 -0.0847
    2LYS    SC1  996  -0.430   4.490   3.809 -0.2321 -0.3931  0.0979
    2LYS    SC2  997  -0.322   4.700   3.677 -0.1641  0.1734  0.3886
    3TYR     BB  998  -0.328   4.084   4.107 -0.2035 -0.1989  0.1642
    3TYR    SC1  999  -0.525   4.177   4.309  0.1851  0.2300  0.0094
    3TYR    SC2 1000  -0.791   4.148   4.273  0.2403 -0.0269 -0.2476
    3TYR    SC3 1001  -0.695   4.260   4.501 -0.1004  0.5464 -0.3627
    1TYR     BB 1002   4.388   3.124   3.997 -0.0572  0.2934 -0.1434
    1TYR    SC1 1003   4.525   3.351   4.137  0.1709 -0.1110  0.1478
    1TYR    SC2 1004   4.680   3.390   4.354  0.0524  0.0264  0.2094
    1TYR    SC3 1005   4.644   3.591   4.177 -0.1398  0.0322  0.2526
    2LYS     BB 1006   4.118   3.028   4.162 -0.0263  0.0005  0.2251
    2LYS    SC1 1007   3.941   2.775   4.092  0.0710 -0.2938 -0.0903
    2LYS    SC2 1008   3.787   2.599   4.241 -0.1187  0.0227  0.1581
    3TYR     BB 1009   3.992   3.186   4.356  0.1300 -0.0007 -0.1494
    3TYR    SC1 1010   3.700   3.053   4.409  0.0216 -0.4303 -0.3520
    3TYR    SC2 1011   3.463   3.171   4.355  0.2059 -0.0874 -0.4417
    3TYR    SC3 1012   3.468   2.919   4.452 -0.2242  0.0810  0.0881
    1TYR     BB 1013   3.954   2.408   3.745 -0.1156  0.0168 -0.2918
    1TYR    SC1 1014   3.981   2.697   3.617 -0.1706  0.0008  0.3777
    1TYR    SC2 1015   3.884   2.941   3.555  0.1370  0.0020 -0.1816
    1TYR    SC3 1016   4.140   2.915   3.637  0.2413 -0.1574 -0.5343
    2LYS     BB 1017   4.209   2.178   3.674  0.2267  0.0889 -0.2378
    2LYS    SC1 1018   4.158   1.926   3.775  0.2130 -0.2185  0.0550
    2LYS    SC2 1019   4.111   1.665   3.760  0.0702 -0.1149  0.3543
    3TYR     BB 1020   4.390   2.428   3.435 -0.3487 -0.2008  0.2186
    3TYR    SC1 1021   4.417   2.382   3.156 -0.3448 -0.1881  0.0188
    3TYR    SC2 1022   4.453   2.400   2.890  0.5036 -0.1397  0.1039
    3TYR    SC3 1023   4.387   2.163   3.001  0.1292 -0.1578 -0.1333
    1TYR     BB 1024   6.218   1.289   3.123 -0.0418  0.0491  0.0780
    1TYR    SC1 1025   6.346   1.505   2.943 -0.3217 -0.1196 -0.4077
    1TYR    SC2 1026   6.572   1.523   2.795  0.1192 -0.1724  0.2122
    1TYR    SC3 1027   6.424   1.743   2.842  0.2905 -0.0440  0.1609
    2LYS     BB 1028   5.920   1.259   3.121 -0.0932  0.0182 -0.1869
    2LYS    SC1 1029   5.832   1.238   3.452 -0.2076 -0.2027 -0.0730
    2LYS    SC2 1030   5.696   1.058   3.560  0.4422 -0.0560  0.2448
    3TYR     BB 1031   5.711   1.388   2.913 -0.0682 -0.4544 -0.0612
    3TYR    SC1 1032   5.661   1.139   2.722  0.2014 -0.3563  0.1002
    3TYR    SC2 1033   5.527   0.908   2.678  0.0616 -0.2226 -0.2163
    3TYR    SC3 1034   5.621   1.053   2.470 -0.0086  0.0957 -0.0365
    1TYR     BB 1035   6.752   3.034   2.769  0.2667 -0.2082  0.1115
    1TYR    SC1 1036   6.711   2.783   2.931  0.5259  0.0400 -0.1542
    1TYR    SC2 1037   6.718   2.517   2.978 -0.3507 -0.0443 -0.2917
    1TYR    SC3 1038   6.651   2.688   3.177  0.0739  0.0754 -0.2397
    2LYS     BB 1039   6.618   3.280   2.717  0.1628  0.1544 -0.1358
    2LYS    SC1 1040   6.322   3.375   2.776  0.2180  0.0675  0.1958
    2LYS    SC2 1041   6.115   3.381   2.911 -0.3686 -0.0331 -0.1420
    3TYR     BB 1042   6.722   3.439   2.390 -0.1157 -0.1089 -0.2100
    3TYR    SC1 1043   6.875   3.180   2.220  0.2217 -0.0071  0.2835
    3TYR    SC2 1044   6.918   2.922   2.288 -0.0113 -0.2205 -0.2954
    3TYR    SC3 1045   7.083   3.045   2.113  0.0723  0.0184 -0.0571
    1TYR     BB 1046   8.228   4.646   3.798 -0.0104  0.1317 -0.0456
    1TYR    SC1 1047   8.514   4.495   3.687 -0.1543  0.2102 -0.2514
    1TYR    SC2 1048   8.652   4.262   3.696 -0.2946  0.1236 -0.2994
    1TYR    SC3 1049   8.781   4.498   3.725 -0.1968  0.0281  0.1304
    2LYS     BB 1050   8.168   4.886   3.645  0.0158  0.1355  0.0749
    2LYS    SC1 1051   8.259   5.164   3.718  0.3458  0.1660  0.1191
    2LYS    SC2 1052   8.433   5.344   3.853 -0.0173  0.0153 -0.2047
    3TYR     BB 1053   7.819   4.961   3.776  0.1152 -0.3052 -0.0902
    3TYR    SC1 1054   7.771   5.189   3.492  0.1851 -0.0512 -0.2013
    3TYR    SC2 1055   7.600   5.343   3.352  0.1230  0.1260  0.0606
    3TYR    SC3 1056   7.862   5.344   3.291  0.0363 -0.1930 -0.3839
    1TYR     BB 1057   9.115   4.392   4.881  0.1959  0.0798 -0.2392
    1TYR    SC1 1058   9.374   4.497   5.034  0.2445 -0.0255  0.0174
    1TYR    SC2 1059   9.531   4.705   5.102 -0.0541  0.0847  0.4159
    1TYR    SC3 1060   9.630   4.455   5.108  0.2758  0.1937  0.0432
    2LYS     BB 1061   8.871   4.461   5.017  0.1549 -0.1269 -0.0970
    2LYS    SC1 1062   8.925   4.742   5.090 -0.1930  0.0193 -0.0617
    2LYS    SC2 1063   9.086   4.924   5.120  0.2095  0.0786  0.3502
    3TYR     BB 1064   8.650   4.210   4.990  0.1947  0.1838  0.0676
    3TYR    SC1 1065   8.602   4.162   5.278 -0.0031 -0.0190  0.0465
    3TYR    SC2 1066   8.578   4.202   5.543  0.2047  0.1205  0.0462
    3TYR    SC3 1067   8.582   3.951   5.445  0.2790  0.0637  0.1911
    1TYR     BB 1068   2.437   5.679   4.153  0.1499  0.0600 -0.0473
    1TYR    SC1 1069   2.282   5.766   3.889 -0.0800 -0.0861  0.0569
    1TYR    SC2 1070   2.208   5.998   3.771 -0.1940 -0.0418  0.2112
    1TYR    SC3 1071   2.281   5.787   3.620  0.4235  0.2518  0.0628
    2LYS     BB 1072   2.667   5.469   4.029  0.2023 -0.0302 -0.0054
    2LYS    SC1 1073   2.890   5.518   4.210 -0.1705  0.1980  0.1968
    2LYS    SC2 1074   3.035   5.415   4.392 -0.0116  0.3072  0.2456
    3TYR     BB 1075   2.672   5.386   3.796 -0.0177 -0.2015  0.0008
    3TYR    SC1 1076   2.756   5.163   3.605  0.2266 -0.0969 -0.2041
    3TYR    SC2 1077   2.906   4.938   3.597  0.2690 -0.0623 -0.7245
    3TYR    SC3 1078   2.669   4.946   3.468 -0.4144 -0.2453  0.3643
    1TYR     BB 1079   7.936   3.702   4.108  0.0900 -0.1889 -0.1661
    1TYR    SC1 1080   7.841   3.615   3.835  0.1542  0.4408 -0.3318
    1TYR    SC2 1081   7.709   3.513   3.623  0.1266 -0.4134  0.0455
    1TYR    SC3 1082   7.929   3.663   3.584 -0.1556 -0.1121 -0.5718
    2LYS     BB 1083   7.800   3.747   4.376 -0.1515 -0.0727 -0.2119
    2LYS    SC1 1084   7.855   4.058   4.487 -0.0637  0.2822  0.1562
    2LYS    SC2 1085   7.733   4.272   4.627 -0.0026  0.0808  0.1150
    3TYR     BB 1086   7.608   3.532   4.471  0.2955  0.0244  0.1453
    3TYR    SC1 1087   7.589   3.333   4.244 -0.4373 -0.0520 -0.1391
    3TYR    SC2 1088   7.623   3.068   4.210  0.0901 -0.0244  0.0579
    3TYR    SC3 1089   7.618   3.232   3.996  0.0984 -0.1598 -0.0480
    1TYR     BB 1090   2.775   4.044   3.084  0.0385  0.0920  0.1549
    1TYR    SC1 1091   2.625   3.762   2.984  0.0601  0.0527 -0.4039
    1TYR    SC2 1092   2.385   3.687   3.082  0.1080  0.1700 -0.1889
    1TYR    SC3 1093   2.543   3.506   2.959  0.1316 -0.0357  0.1264
    2LYS     BB 1094   2.697   4.302   2.854 -0.0299 -0.0718  0.1087
    2LYS    SC1 1095   2.397   4.282   2.840 -0.0428 -0.0736 -0.2128
    2LYS    SC2 1096   2.156   4.365   2.771 -0.1164  0.0856 -0.1799
    3TYR     BB 1097   2.845   4.259   2.566 -0.1526 -0.0535 -0.0573
    3TYR    SC1 1098   2.702   4.358   2.319 -0.1748  0.0899  0.1289
    3TYR    SC2 1099   2.590   4.502   2.120 -0.3139 -0.1186  0.0518
    3TYR    SC3 1100   2.435   4.405   2.318 -0.2069 -0.0846  0.1531
   7.63267   7.63267   7.63267
