Generated by trjconv : Martini system from ../2_Creating_coordinates/TYR-MET-TYR_aa.pdb t=   0.00000
 1000
    1TYR     BB    1   3.036   5.073   4.065 -0.0297  0.1388 -0.0051
    1TYR    SC1    2   2.929   5.256   3.891  0.3372  0.2220  0.1699
    1TYR    SC2    3   2.947   5.417   3.675  0.3151 -0.0224 -0.0193
    1TYR    SC3    4   2.800   5.493   3.888  0.1200  0.1101 -0.1955
    2MET     BB    5   3.137   5.278   4.346  0.1167  0.0236 -0.1155
    2MET    SC1    6   3.078   5.672   4.269  0.1970  0.0057 -0.3773
    3TYR     BB    7   3.112   5.322   4.606 -0.1399 -0.0712 -0.1044
    3TYR    SC1    8   3.372   5.240   4.765  0.1524 -0.2696 -0.3382
    3TYR    SC2    9   3.636   5.289   4.788  0.0338  0.2793  0.1984
    3TYR    SC3   10   3.539   5.042   4.839  0.4391  0.0358 -0.1276
    1TYR     BB   11   4.165   4.883   3.185 -0.2378 -0.3493 -0.1226
    1TYR    SC1   12   4.203   4.762   3.489  0.4084  0.2395 -0.2317
    1TYR    SC2   13   4.317   4.770   3.734  0.2470  0.0606 -0.1475
    1TYR    SC3   14   4.243   4.533   3.627 -0.3600  0.1817 -0.0447
    2MET     BB   15   4.284   4.747   2.925 -0.0496  0.3521 -0.1826
    2MET    SC1   16   4.426   5.061   2.727  0.3008 -0.0568  0.1015
    3TYR     BB   17   4.288   4.562   2.747 -0.1298  0.3651  0.2907
    3TYR    SC1   18   4.258   4.243   2.769  0.0259 -0.0101 -0.3857
    3TYR    SC2   19   4.317   3.997   2.671 -0.2649 -0.1643 -0.1905
    3TYR    SC3   20   4.108   4.029   2.841 -0.3144  0.2418 -0.3146
    1TYR     BB   21   3.762   4.667   3.454 -0.3749  0.1704  0.1844
    1TYR    SC1   22   3.782   4.502   3.694  0.1729 -0.0332 -0.2338
    1TYR    SC2   23   3.889   4.487   3.941  0.0111 -0.0487 -0.1635
    1TYR    SC3   24   3.895   4.272   3.778 -0.2281 -0.1640 -0.0266
    2MET     BB   25   3.599   4.912   3.412  0.2183 -0.2881  0.1326
    2MET    SC1   26   3.844   5.167   3.407  0.0649 -0.1220 -0.0083
    3TYR     BB   27   3.291   5.114   3.504 -0.0674  0.0168 -0.1187
    3TYR    SC1   28   3.438   5.358   3.667  0.5671  0.1254  0.0597
    3TYR    SC2   29   3.440   5.618   3.595 -0.0017  0.1566  0.1042
    3TYR    SC3   30   3.349   5.547   3.839  0.3140 -0.0774  0.1600
    1TYR     BB   31   5.883   3.831   3.928 -0.2175 -0.1814  0.0017
    1TYR    SC1   32   5.761   3.650   3.679 -0.0871 -0.3148 -0.0544
    1TYR    SC2   33   5.656   3.416   3.593 -0.3987 -0.1403 -0.1711
    1TYR    SC3   34   5.572   3.650   3.486 -0.2913  0.0446  0.1305
    2MET     BB   35   6.186   3.838   3.954 -0.0113 -0.3345 -0.0271
    2MET    SC1   36   6.238   3.923   4.322 -0.2304 -0.0553  0.1676
    3TYR     BB   37   6.362   3.641   3.952 -0.1556  0.5687  0.0670
    3TYR    SC1   38   6.466   3.493   4.238 -0.0308 -0.0611 -0.1634
    3TYR    SC2   39   6.636   3.342   4.384 -0.0227 -0.0611 -0.1729
    3TYR    SC3   40   6.405   3.428   4.493 -0.1195 -0.2435 -0.2298
    1TYR     BB   41   5.090   3.610   2.707  0.2947  0.0388  0.1427
    1TYR    SC1   42   4.990   3.377   2.494 -0.5105  0.0352 -0.0798
    1TYR    SC2   43   4.930   3.298   2.243 -0.1343 -0.0339 -0.1558
    1TYR    SC3   44   4.890   3.130   2.452 -0.1697 -0.0876 -0.2052
    2MET     BB   45   5.019   3.961   2.713  0.0295 -0.3371 -0.4325
    2MET    SC1   46   4.752   4.087   2.870 -0.1027  0.1704 -0.1623
    3TYR     BB   47   5.196   4.248   2.770  0.3284 -0.0707 -0.2041
    3TYR    SC1   48   5.002   4.489   2.744 -0.2095 -0.1872 -0.1490
    3TYR    SC2   49   4.815   4.622   2.885  0.0684 -0.2899  0.3496
    3TYR    SC3   50   4.964   4.753   2.702 -0.1598 -0.0966  0.2956
    1TYR     BB   51   4.988   5.689   4.437  0.1033  0.0189 -0.2752
    1TYR    SC1   52   5.271   5.709   4.501 -0.0983  0.3781 -0.2426
    1TYR    SC2   53   5.461   5.613   4.667 -0.1017  0.2270 -0.3229
    1TYR    SC3   54   5.504   5.618   4.400 -0.2508  0.0886 -0.3513
    2MET     BB   55   4.784   5.495   4.600 -0.0760 -0.0867 -0.1801
    2MET    SC1   56   4.848   5.618   4.958 -0.1312  0.2512 -0.0476
    3TYR     BB   57   4.744   5.242   4.425 -0.2234 -0.1075 -0.2223
    3TYR    SC1   58   4.748   5.259   4.149  0.1369  0.2316 -0.0778
    3TYR    SC2   59   4.650   5.125   3.936 -0.0292  0.2137  0.0090
    3TYR    SC3   60   4.703   5.389   3.917 -0.0856  0.2218 -0.0425
    1TYR     BB   61   4.691   3.321   3.898 -0.0231 -0.1990 -0.0028
    1TYR    SC1   62   4.450   3.463   4.006  0.0850 -0.0384  0.2317
    1TYR    SC2   63   4.222   3.496   4.148  0.1706  0.1620  0.3264
    1TYR    SC3   64   4.449   3.623   4.223  0.3075 -0.0103  0.2151
    2MET     BB   65   4.662   3.258   3.597  0.1994  0.2110  0.1482
    2MET    SC1   66   5.055   3.205   3.556  0.2397 -0.2482  0.1776
    3TYR     BB   67   4.562   3.406   3.336 -0.0081 -0.4931  0.1138
    3TYR    SC1   68   4.770   3.232   3.105  0.0613  0.0336 -0.0168
    3TYR    SC2   69   4.910   3.113   2.907  0.1690 -0.1048  0.1382
    3TYR    SC3   70   4.641   3.092   2.913  0.1820 -0.2874  0.1275
    1TYR     BB   71   3.867   1.862   4.778  0.3965  0.2705 -0.0881
    1TYR    SC1   72   3.614   1.733   4.657  0.0345  0.0162  0.3781
    1TYR    SC2   73   3.347   1.716   4.696 -0.0549 -0.1000 -0.1757
    1TYR    SC3   74   3.495   1.491   4.675  0.0267 -0.0431 -0.2150
    2MET     BB   75   4.084   1.648   4.759 -0.0584 -0.2243  0.1039
    2MET    SC1   76   3.940   1.298   4.664 -0.0903 -0.0636  0.2733
    3TYR     BB   77   4.417   1.668   4.772  0.1424  0.0222 -0.1865
    3TYR    SC1   78   4.509   1.452   4.594  0.1845  0.0786  0.1738
    3TYR    SC2   79   4.381   1.231   4.507  0.0870  0.2437 -0.1143
    3TYR    SC3   80   4.647   1.223   4.552  0.0702  0.0463 -0.0381
    1TYR     BB   81   5.967   3.316   4.681 -0.0689 -0.1193  0.0106
    1TYR    SC1   82   5.672   3.420   4.731  0.0499 -0.1021  0.0920
    1TYR    SC2   83   5.466   3.359   4.896 -0.1083  0.0582 -0.0424
    1TYR    SC3   84   5.503   3.613   4.814  0.2420  0.0616  0.1075
    2MET     BB   85   5.955   3.112   4.519 -0.1522  0.1628 -0.0645
    2MET    SC1   86   5.976   3.322   4.185  0.3532 -0.0885 -0.1621
    3TYR     BB   87   5.867   2.778   4.449 -0.1609 -0.4734  0.2087
    3TYR    SC1   88   5.891   2.762   4.134  0.4067  0.2193  0.0255
    3TYR    SC2   89   5.918   2.541   3.980  0.1814  0.0553  0.2109
    3TYR    SC3   90   5.997   2.782   3.885  0.0741 -0.0429 -0.1477
    1TYR     BB   91   2.763   3.522   5.483  0.0297 -0.1356  0.2158
    1TYR    SC1   92   2.496   3.424   5.314  0.2729  0.1071 -0.2281
    1TYR    SC2   93   2.306   3.243   5.378  0.4416  0.0108  0.0208
    1TYR    SC3   94   2.388   3.268   5.122  0.0928  0.0602 -0.0928
    2MET     BB   95   2.673   3.724   5.725  0.3161  0.0231 -0.3663
    2MET    SC1   96   2.337   3.582   5.779 -0.2844 -0.0458  0.0897
    3TYR     BB   97   2.675   4.059   5.777  0.0831  0.2264  0.2482
    3TYR    SC1   98   2.715   4.287   5.578  0.0499 -0.0361 -0.1979
    3TYR    SC2   99   2.718   4.414   5.339  0.0276  0.2907 -0.0323
    3TYR    SC3  100   2.694   4.556   5.567  0.0122 -0.0183  0.1669
    1TYR     BB  101   3.224   4.574   3.291  0.0670 -0.1175  0.0106
    1TYR    SC1  102   3.378   4.294   3.212  0.0363  0.1284  0.0985
    1TYR    SC2  103   3.575   4.167   3.346  0.0388  0.0741  0.0438
    1TYR    SC3  104   3.620   4.258   3.095 -0.0692 -0.1298 -0.0530
    2MET     BB  105   2.985   4.590   3.469  0.0660  0.0332 -0.1674
    2MET    SC1  106   2.695   4.475   3.376  0.2133  0.2481 -0.1323
    3TYR     BB  107   2.901   4.856   3.628 -0.1813  0.2680 -0.0119
    3TYR    SC1  108   2.632   4.918   3.714 -0.0122  0.1025  0.1465
    3TYR    SC2  109   2.374   4.955   3.784 -0.0585  0.0632  0.0011
    3TYR    SC3  110   2.506   5.147   3.646 -0.0124  0.0791  0.0666
    1TYR     BB  111   2.483   4.402   1.994 -0.1886  0.0634  0.1081
    1TYR    SC1  112   2.461   4.674   2.114  0.1270  0.0094  0.2357
    1TYR    SC2  113   2.411   4.852   2.312 -0.4203  0.0399  0.0895
    1TYR    SC3  114   2.503   4.937   2.072 -0.4455  0.0965  0.0997
    2MET     BB  115   2.788   4.280   2.114 -0.1960 -0.1607  0.2400
    2MET    SC1  116   2.959   4.371   1.799 -0.0172 -0.0281  0.1005
    3TYR     BB  117   3.091   4.147   2.262  0.0911 -0.2959 -0.0909
    3TYR    SC1  118   3.288   4.359   2.191  0.2433 -0.0517 -0.2746
    3TYR    SC2  119   3.542   4.433   2.136  0.1957  0.2382 -0.1310
    3TYR    SC3  120   3.338   4.602   2.085  0.0256 -0.0021 -0.2689
    1TYR     BB  121   1.459   4.159   3.466  0.2738  0.0241 -0.2643
    1TYR    SC1  122   1.356   4.409   3.410 -0.1050 -0.2014 -0.1178
    1TYR    SC2  123   1.191   4.600   3.506 -0.1211 -0.1211 -0.3019
    1TYR    SC3  124   1.181   4.531   3.244  0.1660 -0.0831 -0.3259
    2MET     BB  125   1.315   3.870   3.408 -0.0027  0.3764 -0.0475
    2MET    SC1  126   1.253   3.768   3.711  0.1709  0.0805 -0.1418
    3TYR     BB  127   1.118   3.650   3.230 -0.0200 -0.1534 -0.1339
    3TYR    SC1  128   1.259   3.374   3.284 -0.0128  0.1894  0.3690
    3TYR    SC2  129   1.469   3.310   3.440  0.1245 -0.1029  0.0809
    3TYR    SC3  130   1.324   3.114   3.322 -0.0147  0.1072 -0.1049
    1TYR     BB  131   3.468   2.782   4.948  0.3500 -0.0560 -0.2595
    1TYR    SC1  132   3.204   2.611   5.045  0.0264  0.2164  0.1577
    1TYR    SC2  133   3.072   2.377   5.064  0.1694  0.1471  0.3442
    1TYR    SC3  134   2.992   2.589   5.211  0.2827  0.0950  0.4833
    2MET     BB  135   3.651   2.872   5.148  0.0290 -0.2177 -0.0045
    2MET    SC1  136   3.636   3.232   5.097 -0.3568  0.0671  0.0174
    3TYR     BB  137   3.852   2.770   5.357  0.0450  0.1786  0.1953
    3TYR    SC1  138   4.110   2.610   5.311 -0.0330  0.1498 -0.2953
    3TYR    SC2  139   4.367   2.688   5.336  0.0023 -0.0324 -0.0151
    3TYR    SC3  140   4.308   2.451   5.221 -0.0473  0.0327 -0.1266
    1TYR     BB  141   5.446   3.669   5.502  0.1263 -0.4512  0.2143
    1TYR    SC1  142   5.648   3.710   5.219 -0.0658 -0.0976 -0.0733
    1TYR    SC2  143   5.864   3.804   5.087 -0.1765 -0.2676 -0.3907
    1TYR    SC3  144   5.833   3.539   5.123 -0.0341 -0.2209  0.1976
    2MET     BB  145   5.240   3.457   5.440  0.0965  0.2601  0.2998
    2MET    SC1  146   5.162   3.306   5.764  0.0415 -0.2280 -0.0804
    3TYR     BB  147   5.258   3.186   5.310 -0.0548  0.1878 -0.1068
    3TYR    SC1  148   5.111   2.937   5.385  0.0293  0.0817  0.0343
    3TYR    SC2  149   5.053   2.761   5.583  0.3309 -0.0141  0.0423
    3TYR    SC3  150   4.870   2.814   5.391  0.0079  0.1270  0.3753
    1TYR     BB  151   6.378   3.659   2.857 -0.0942  0.0993  0.1271
    1TYR    SC1  152   6.374   3.551   2.551  0.4509  0.0553 -0.0256
    1TYR    SC2  153   6.373   3.307   2.435 -0.2666 -0.0308  0.1037
    1TYR    SC3  154   6.292   3.524   2.295  0.0710  0.0895  0.0838
    2MET     BB  155   6.484   3.362   3.076 -0.0246  0.2685  0.2475
    2MET    SC1  156   6.315   3.082   2.894  0.1930  0.2015  0.0128
    3TYR     BB  157   6.451   3.253   3.315 -0.0990  0.0348  0.2240
    3TYR    SC1  158   6.333   3.217   3.591 -0.0801  0.0747  0.0584
    3TYR    SC2  159   6.096   3.223   3.719  0.0025  0.0431  0.2160
    3TYR    SC3  160   6.319   3.153   3.853  0.1165  0.1640  0.0925
    1TYR     BB  161   3.752   2.891   3.971  0.0546 -0.1482  0.0939
    1TYR    SC1  162   4.059   2.885   3.968  0.0610  0.2696  0.0037
    1TYR    SC2  163   4.283   3.013   4.046  0.0448  0.3360 -0.0580
    1TYR    SC3  164   4.300   2.807   3.872  0.0405  0.4750 -0.2261
    2MET     BB  165   3.677   2.602   3.813  0.1751  0.1223 -0.0087
    2MET    SC1  166   3.955   2.668   3.555  0.2147  0.0740  0.1080
    3TYR     BB  167   3.543   2.342   3.845  0.2926 -0.1072  0.4038
    3TYR    SC1  168   3.335   2.275   3.649  0.2033  0.5243 -0.3417
    3TYR    SC2  169   3.079   2.338   3.593  0.0725  0.1073 -0.2606
    3TYR    SC3  170   3.193   2.122   3.478  0.1538 -0.1232  0.2239
    1TYR     BB  171   3.820   4.301   5.126 -0.2782 -0.2960 -0.4306
    1TYR    SC1  172   3.708   4.563   5.288  0.1125 -0.0522 -0.1461
    1TYR    SC2  173   3.799   4.762   5.445 -0.0659 -0.1071  0.0329
    1TYR    SC3  174   3.621   4.815   5.248 -0.1465 -0.0958  0.1087
    2MET     BB  175   4.053   4.186   5.129  0.0216  0.0863 -0.2153
    2MET    SC1  176   4.298   4.350   4.984 -0.0769 -0.1226  0.1377
    3TYR     BB  177   4.137   3.934   5.452  0.3352  0.3132 -0.0001
    3TYR    SC1  178   4.363   3.799   5.385  0.1625  0.0865  0.1075
    3TYR    SC2  179   4.480   3.559   5.426 -0.1073 -0.0544  0.0886
    3TYR    SC3  180   4.541   3.703   5.206 -0.1679 -0.2499 -0.0604
    1TYR     BB  181   2.434   3.479   2.620  0.3741  0.0033 -0.0215
    1TYR    SC1  182   2.615   3.705   2.629  0.1345  0.0623  0.2785
    1TYR    SC2  183   2.874   3.775   2.600  0.0827  0.1888  0.1001
    1TYR    SC3  184   2.679   3.924   2.486 -0.0486 -0.1017 -0.0724
    2MET     BB  185   2.686   3.267   2.763 -0.2821 -0.0515  0.4992
    2MET    SC1  186   2.438   3.198   3.046 -0.0117  0.3125 -0.3016
    3TYR     BB  187   2.824   3.072   2.744 -0.0196 -0.0931  0.2356
    3TYR    SC1  188   2.913   2.905   2.464 -0.1110 -0.2977  0.0782
    3TYR    SC2  189   3.001   2.708   2.301 -0.2245 -0.2244 -0.0754
    3TYR    SC3  190   2.753   2.809   2.268 -0.1469 -0.0145 -0.0372
    1TYR     BB  191   3.683   2.754   2.980 -0.1448  0.0082 -0.0071
    1TYR    SC1  192   3.528   2.750   3.233 -0.1429 -0.0204 -0.1184
    1TYR    SC2  193   3.350   2.732   3.436  0.2861  0.1589  0.2939
    1TYR    SC3  194   3.489   2.514   3.360 -0.3247 -0.0741 -0.2677
    2MET     BB  195   3.900   2.474   2.998  0.2633 -0.0751 -0.0594
    2MET    SC1  196   4.038   2.290   2.670 -0.0059 -0.2621 -0.1320
    3TYR     BB  197   4.133   2.477   3.149  0.0514 -0.2440 -0.2793
    3TYR    SC1  198   4.352   2.327   3.023  0.0585  0.0368  0.2334
    3TYR    SC2  199   4.539   2.314   2.829  0.1067 -0.0739  0.2862
    3TYR    SC3  200   4.538   2.132   3.028 -0.0145 -0.0316  0.3256
    1TYR     BB  201   5.622   4.775   5.008  0.0865 -0.1204  0.1292
    1TYR    SC1  202   5.882   4.751   5.160  0.0821 -0.3937 -0.1117
    1TYR    SC2  203   6.136   4.665   5.184  0.2068 -0.0107  0.0492
    1TYR    SC3  204   6.033   4.834   5.368 -0.0791  0.0458 -0.1553
    2MET     BB  205   5.636   4.715   4.731 -0.0076  0.2549  0.1436
    2MET    SC1  206   5.383   4.648   4.519 -0.0248 -0.0537  0.3818
    3TYR     BB  207   5.962   4.804   4.594  0.0719  0.1572  0.2356
    3TYR    SC1  208   5.896   5.103   4.633  0.0208  0.3618  0.0729
    3TYR    SC2  209   5.874   5.360   4.557 -0.1959  0.3026 -0.0735
    3TYR    SC3  210   5.731   5.270   4.767 -0.0038  0.3364  0.0744
    1TYR     BB  211   6.619   4.029   3.938 -0.1507  0.1142 -0.1324
    1TYR    SC1  212   6.872   3.841   4.064 -0.0765  0.1809 -0.2824
    1TYR    SC2  213   7.139   3.862   4.028 -0.0070  0.0882  0.1224
    1TYR    SC3  214   7.029   3.622   4.086 -0.1066  0.2036  0.4348
    2MET     BB  215   6.653   4.255   4.086  0.1357 -0.4378  0.1755
    2MET    SC1  216   6.312   4.439   4.056 -0.0705  0.1625 -0.1946
    3TYR     BB  217   6.981   4.347   4.030  0.1931  0.0964 -0.2890
    3TYR    SC1  218   7.196   4.505   3.817  0.1620  0.0018 -0.2136
    3TYR    SC2  219   7.441   4.510   3.702  0.1235 -0.0209 -0.2971
    3TYR    SC3  220   7.218   4.487   3.549  0.0840 -0.3063 -0.2048
    1TYR     BB  221   5.255   5.045   3.129 -0.1245  0.1293  0.1822
    1TYR    SC1  222   5.035   5.195   2.987 -0.2095  0.4653  0.1872
    1TYR    SC2  223   5.015   5.421   2.838 -0.2174  0.2564 -0.1417
    1TYR    SC3  224   4.836   5.220   2.806  0.0628  0.0072 -0.2069
    2MET     BB  225   5.220   4.785   3.184 -0.1919  0.1788  0.0328
    2MET    SC1  226   5.449   4.647   2.932 -0.2186 -0.1294  0.2272
    3TYR     BB  227   5.166   4.608   3.386  0.2528  0.2651 -0.0703
    3TYR    SC1  228   5.204   4.308   3.337 -0.0804 -0.0062  0.3224
    3TYR    SC2  229   5.285   4.059   3.407  0.1900 -0.0005  0.0570
    3TYR    SC3  230   5.056   4.093   3.266  0.2165 -0.1119 -0.0140
    1TYR     BB  231   5.389   4.581   2.438 -0.2215 -0.0075 -0.3020
    1TYR    SC1  232   5.320   4.901   2.510 -0.0091 -0.1801  0.2947
    1TYR    SC2  233   5.349   5.120   2.667 -0.2098 -0.0953  0.2169
    1TYR    SC3  234   5.185   5.128   2.452 -0.0862 -0.2702  0.1131
    2MET     BB  235   5.167   4.440   2.286  0.0757 -0.0906 -0.0575
    2MET    SC1  236   4.944   4.729   2.239  0.0250  0.0367  0.3976
    3TYR     BB  237   5.177   4.167   2.297 -0.1028  0.3743 -0.0118
    3TYR    SC1  238   5.369   3.882   2.376  0.0346  0.0759 -0.0764
    3TYR    SC2  239   5.535   3.823   2.171 -0.1914 -0.1176 -0.2103
    3TYR    SC3  240   5.530   3.666   2.391 -0.0863 -0.0200 -0.1368
    1TYR     BB  241   2.361   3.617   4.408 -0.1354 -0.0949  0.2860
    1TYR    SC1  242   2.492   3.701   4.111 -0.1989 -0.0322  0.0116
    1TYR    SC2  243   2.610   3.840   3.913 -0.3555  0.0518 -0.0246
    1TYR    SC3  244   2.545   3.580   3.876 -0.2555  0.0267 -0.0314
    2MET     BB  245   2.082   3.630   4.385 -0.0760  0.0225  0.1024
    2MET    SC1  246   2.020   3.490   4.038  0.2385  0.0429  0.3281
    3TYR     BB  247   1.866   3.796   4.541  0.0880 -0.0332 -0.3036
    3TYR    SC1  248   1.582   3.843   4.534  0.1011  0.0708  0.0846
    3TYR    SC2  249   1.325   3.834   4.451  0.0897 -0.1678  0.1367
    3TYR    SC3  250   1.390   3.753   4.700  0.2144 -0.0891  0.1313
    1TYR     BB  251   2.155   4.953   4.631 -0.0859  0.1337 -0.0327
    1TYR    SC1  252   2.177   4.804   4.364  0.0237  0.2032 -0.0763
    1TYR    SC2  253   2.308   4.581   4.288  0.1878  0.2870 -0.0458
    1TYR    SC3  254   2.190   4.739   4.103 -0.3360 -0.0630 -0.0364
    2MET     BB  255   2.218   5.279   4.484 -0.5990 -0.1376  0.0196
    2MET    SC1  256   2.267   5.410   4.881  0.1671 -0.0642 -0.0350
    3TYR     BB  257   2.089   5.528   4.466  0.3993  0.0510  0.0397
    3TYR    SC1  258   2.236   5.822   4.472 -0.0572 -0.0207  0.0530
    3TYR    SC2  259   2.426   5.993   4.559 -0.0841 -0.0517  0.1770
    3TYR    SC3  260   2.340   6.004   4.302  0.1113 -0.0629  0.1088
    1TYR     BB  261   1.304   4.886   4.341  0.0125 -0.0933  0.0235
    1TYR    SC1  262   1.249   4.610   4.498  0.2907 -0.1017 -0.1816
    1TYR    SC2  263   1.221   4.343   4.522  0.1439 -0.0470  0.6464
    1TYR    SC3  264   1.025   4.507   4.608  0.1212  0.3529 -0.0707
    2MET     BB  265   1.108   5.020   4.355  0.3031 -0.0295  0.3534
    2MET    SC1  266   1.234   5.377   4.461 -0.0123 -0.2312  0.2614
    3TYR     BB  267   0.838   5.014   4.460 -0.0499  0.0119 -0.0036
    3TYR    SC1  268   0.620   4.931   4.158  0.0691  0.0904 -0.3074
    3TYR    SC2  269   0.433   4.769   4.048  0.1070 -0.2178  0.0588
    3TYR    SC3  270   0.517   4.988   3.915 -0.3134 -0.2204 -0.2316
    1TYR     BB  271   2.919   4.278   3.871 -0.2314 -0.1616 -0.1152
    1TYR    SC1  272   2.989   4.111   3.647 -0.3176 -0.0938  0.0153
    1TYR    SC2  273   2.961   4.060   3.383 -0.2476 -0.0839  0.0059
    1TYR    SC3  274   3.203   4.039   3.500 -0.2463  0.0757  0.0337
    2MET     BB  275   3.056   4.484   3.969  0.3090 -0.2215  0.0242
    2MET    SC1  276   2.771   4.663   4.119  0.3021 -0.0709  0.2878
    3TYR     BB  277   3.295   4.684   3.810 -0.1901  0.1238  0.3738
    3TYR    SC1  278   3.548   4.861   3.914 -0.1114 -0.0034  0.2716
    3TYR    SC2  279   3.798   4.938   3.847 -0.1927 -0.0675 -0.1431
    3TYR    SC3  280   3.645   5.095   4.006  0.0571  0.0407 -0.0032
    1TYR     BB  281   1.977   4.047   3.385 -0.1432 -0.0733 -0.1405
    1TYR    SC1  282   2.277   3.975   3.393  0.4574  0.0624 -0.1090
    1TYR    SC2  283   2.502   4.048   3.522  0.3457 -0.0769  0.1743
    1TYR    SC3  284   2.439   3.787   3.499  0.2312 -0.0407  0.0645
    2MET     BB  285   1.894   4.066   3.046  0.0303 -0.0351  0.0874
    2MET    SC1  286   1.535   4.123   3.015 -0.0730 -0.0777  0.3647
    3TYR     BB  287   2.000   4.263   2.820 -0.0091  0.2807 -0.0178
    3TYR    SC1  288   1.839   4.507   2.796  0.0603  0.0846  0.0450
    3TYR    SC2  289   1.572   4.539   2.784  0.0063 -0.3733 -0.4064
    3TYR    SC3  290   1.735   4.753   2.765 -0.3182 -0.0961 -0.2097
    1TYR     BB  291   1.708   3.321   4.478  0.1197  0.1181  0.1535
    1TYR    SC1  292   1.557   3.447   4.244  0.1482  0.0705 -0.1682
    1TYR    SC2  293   1.339   3.564   4.135 -0.0070  0.0421  0.1000
    1TYR    SC3  294   1.517   3.435   3.977 -0.1698  0.0862 -0.1262
    2MET     BB  295   1.586   3.238   4.694 -0.1922 -0.3883  0.2707
    2MET    SC1  296   1.726   3.488   4.918 -0.1453 -0.0111 -0.1939
    3TYR     BB  297   1.297   3.188   4.742  0.0744  0.0344 -0.2084
    3TYR    SC1  298   1.147   3.427   4.584  0.0482 -0.1307 -0.0275
    3TYR    SC2  299   0.981   3.384   4.376  0.0876  0.3590 -0.1744
    3TYR    SC3  300   0.944   3.598   4.536  0.2624  0.1772  0.1201
    1TYR     BB  301   2.769   4.553   2.529  0.0997 -0.1497 -0.3433
    1TYR    SC1  302   2.896   4.767   2.354  0.1684 -0.2108 -0.1078
    1TYR    SC2  303   3.091   4.903   2.226  0.2068  0.0119  0.1739
    1TYR    SC3  304   2.902   4.774   2.084  0.2675  0.2167 -0.1057
    2MET     BB  305   2.569   4.420   2.546 -0.1906 -0.0257 -0.2037
    2MET    SC1  306   2.348   4.645   2.781  0.2602  0.0123 -0.1034
    3TYR     BB  307   2.332   4.291   2.431  0.0938  0.0859  0.2536
    3TYR    SC1  308   2.079   4.464   2.321 -0.0199 -0.0771 -0.2374
    3TYR    SC2  309   1.932   4.685   2.374 -0.2770 -0.3472  0.2612
    3TYR    SC3  310   1.875   4.533   2.158  0.0546  0.1751 -0.2312
    1TYR     BB  311   3.868   2.758   2.530 -0.0747 -0.0573 -0.5431
    1TYR    SC1  312   3.910   2.543   2.340 -0.1855 -0.4395  0.0102
    1TYR    SC2  313   4.069   2.501   2.126 -0.1252 -0.0072 -0.0433
    1TYR    SC3  314   3.802   2.470   2.104 -0.1241  0.0836 -0.1981
    2MET     BB  315   3.973   3.006   2.420 -0.0795 -0.0314  0.0835
    2MET    SC1  316   4.151   2.977   2.075 -0.0328  0.2594  0.0824
    3TYR     BB  317   3.847   3.216   2.402 -0.2742 -0.1890 -0.0873
    3TYR    SC1  318   3.971   3.485   2.281 -0.1742 -0.1149 -0.0157
    3TYR    SC2  319   4.114   3.712   2.301 -0.1113 -0.1613  0.0682
    3TYR    SC3  320   4.006   3.641   2.064 -0.2573  0.0306  0.0746
    1TYR     BB  321   4.847   4.155   4.789  0.2854 -0.3681  0.1541
    1TYR    SC1  322   5.063   4.344   4.940 -0.1098  0.2200  0.1249
    1TYR    SC2  323   5.235   4.394   5.142  0.1297  0.2422 -0.0792
    1TYR    SC3  324   5.204   4.574   4.944  0.1111  0.0984 -0.2094
    2MET     BB  325   4.958   3.781   4.907 -0.3134 -0.1805 -0.2270
    2MET    SC1  326   5.252   3.919   5.100  0.2603  0.2469 -0.2665
    3TYR     BB  327   4.961   3.502   5.011  0.1152 -0.1381 -0.0309
    3TYR    SC1  328   4.789   3.323   5.199  0.1819 -0.2333 -0.0674
    3TYR    SC2  329   4.629   3.116   5.265  0.2471 -0.3139 -0.1586
    3TYR    SC3  330   4.769   3.245   5.456 -0.2290  0.0196 -0.0122
    1TYR     BB  331   3.144   2.280   4.123 -0.2513 -0.2718 -0.1550
    1TYR    SC1  332   3.223   2.000   4.186  0.1087  0.0262  0.0880
    1TYR    SC2  333   3.406   1.804   4.148 -0.0743 -0.1244 -0.0373
    1TYR    SC3  334   3.158   1.742   4.235  0.0179  0.1068  0.4330
    2MET     BB  335   2.953   2.402   4.326 -0.2306 -0.0979 -0.0173
    2MET    SC1  336   2.938   2.068   4.578 -0.0118 -0.2979 -0.4124
    3TYR     BB  337   2.914   2.612   4.540  0.1515 -0.0795 -0.1102
    3TYR    SC1  338   2.780   2.522   4.770  0.0626 -0.0902 -0.2661
    3TYR    SC2  339   2.686   2.345   4.950  0.0672  0.1521 -0.0169
    3TYR    SC3  340   2.527   2.544   4.862  0.2188  0.3320  0.1075
    1TYR     BB  341   4.145   2.925   4.941 -0.3840 -0.1258  0.0036
    1TYR    SC1  342   4.128   3.216   4.979 -0.0397  0.1584 -0.0391
    1TYR    SC2  343   4.345   3.375   4.980  0.0052  0.0980  0.0985
    1TYR    SC3  344   4.103   3.476   5.046  0.0226  0.1239  0.1231
    2MET     BB  345   4.406   2.841   4.898  0.3935  0.3506  0.0982
    2MET    SC1  346   4.300   2.606   4.614 -0.3649  0.1713  0.0121
    3TYR     BB  347   4.681   2.678   4.903 -0.1532 -0.0945  0.0104
    3TYR    SC1  348   4.973   2.797   4.872 -0.1318  0.1513 -0.0230
    3TYR    SC2  349   5.097   3.036   4.851  0.1331  0.0151 -0.0614
    3TYR    SC3  350   5.222   2.829   4.970 -0.1986 -0.0353  0.2195
    1TYR     BB  351   1.668   5.553   3.735 -0.3620  0.2378  0.1308
    1TYR    SC1  352   1.433   5.419   3.750  0.1574 -0.0086 -0.0461
    1TYR    SC2  353   1.166   5.455   3.733  0.1785  0.1506 -0.0618
    1TYR    SC3  354   1.272   5.335   3.950  0.0971  0.1137 -0.0420
    2MET     BB  355   1.958   5.539   3.513  0.0357 -0.1034  0.2648
    2MET    SC1  356   1.733   5.515   3.217  0.2350 -0.0570 -0.1233
    3TYR     BB  357   2.154   5.303   3.421  0.2468  0.2990 -0.0808
    3TYR    SC1  358   2.023   5.108   3.279  0.1004 -0.1652 -0.1178
    3TYR    SC2  359   2.040   4.880   3.134 -0.0316 -0.1173 -0.2118
    3TYR    SC3  360   1.920   5.098   3.029 -0.1084 -0.0734 -0.0386
    1TYR     BB  361   4.148   3.418   3.006  0.1045 -0.1732 -0.1627
    1TYR    SC1  362   3.971   3.578   3.211  0.3781 -0.0922  0.2099
    1TYR    SC2  363   3.916   3.839   3.258  0.2232 -0.0705 -0.0659
    1TYR    SC3  364   3.758   3.646   3.363 -0.0566 -0.0266 -0.3844
    2MET     BB  365   4.343   3.535   2.819 -0.0983 -0.1348  0.0865
    2MET    SC1  366   4.413   3.274   2.543  0.2412 -0.0781  0.0228
    3TYR     BB  367   4.640   3.639   2.840 -0.0733  0.0468 -0.0078
    3TYR    SC1  368   4.644   3.720   2.488 -0.0811 -0.2077  0.1161
    3TYR    SC2  369   4.558   3.839   2.261 -0.1262 -0.7896 -0.1960
    3TYR    SC3  370   4.814   3.756   2.282  0.1407  0.0140  0.3298
    1TYR     BB  371   5.240   5.385   4.029 -0.0273 -0.0535  0.2661
    1TYR    SC1  372   5.435   5.210   3.823  0.1826 -0.1276  0.0043
    1TYR    SC2  373   5.557   5.011   3.689 -0.1359 -0.1969 -0.1975
    1TYR    SC3  374   5.522   5.251   3.571  0.0507 -0.0867 -0.0361
    2MET     BB  375   5.231   5.234   4.247  0.0568  0.4328 -0.0207
    2MET    SC1  376   5.105   4.858   4.140  0.1371  0.1070 -0.1527
    3TYR     BB  377   5.352   5.174   4.467 -0.0031 -0.1735 -0.5171
    3TYR    SC1  378   5.224   5.201   4.757 -0.5229  0.0897 -0.0284
    3TYR    SC2  379   5.108   5.065   4.960 -0.2905  0.0821  0.1026
    3TYR    SC3  380   5.321   5.224   5.008 -0.0910 -0.0923 -0.1676
    1TYR     BB  381   1.788   4.319   5.388  0.0944  0.0635  0.0463
    1TYR    SC1  382   2.050   4.425   5.505  0.1397 -0.1333 -0.2503
    1TYR    SC2  383   2.276   4.390   5.648 -0.1639  0.1548  0.3506
    1TYR    SC3  384   2.232   4.623   5.519 -0.0240  0.0070  0.0212
    2MET     BB  385   1.846   4.057   5.210  0.1324  0.0962  0.1044
    2MET    SC1  386   1.567   3.817   5.227  0.3977  0.0858 -0.0753
    3TYR     BB  387   1.797   4.161   4.858 -0.3493 -0.2144  0.1732
    3TYR    SC1  388   1.530   4.227   4.901  0.1861  0.4392  0.1501
    3TYR    SC2  389   1.273   4.181   4.970  0.2336  0.0715  0.1081
    3TYR    SC3  390   1.373   4.432   4.983 -0.1629  0.2472 -0.0076
    1TYR     BB  391   4.361   5.296   3.563  0.3124  0.1787 -0.2524
    1TYR    SC1  392   4.310   5.434   3.279  0.1890 -0.0163 -0.1450
    1TYR    SC2  393   4.267   5.606   3.075 -0.1230  0.0637 -0.0191
    1TYR    SC3  394   4.421   5.388   3.037  0.2160  0.3238 -0.2032
    2MET     BB  395   4.214   5.452   3.805 -0.0747  0.0786  0.0908
    2MET    SC1  396   4.159   5.159   4.097 -0.0245 -0.0474 -0.0485
    3TYR     BB  397   3.919   5.504   3.797 -0.1567  0.0218  0.2320
    3TYR    SC1  398   3.817   5.515   4.113 -0.1721  0.2620  0.0839
    3TYR    SC2  399   3.826   5.387   4.351 -0.1451 -0.0816 -0.0949
    3TYR    SC3  400   3.596   5.502   4.267 -0.2153 -0.1506  0.0011
    1TYR     BB  401   5.037   5.133   3.551 -0.0344 -0.1023  0.1212
    1TYR    SC1  402   4.821   5.013   3.408  0.0654  0.0210  0.1399
    1TYR    SC2  403   4.683   5.063   3.182 -0.0268 -0.2424  0.1335
    1TYR    SC3  404   4.677   4.818   3.292  0.1343 -0.1560  0.3446
    2MET     BB  405   5.031   5.451   3.562 -0.4232 -0.0277 -0.0103
    2MET    SC1  406   5.268   5.542   3.257  0.0966  0.0240 -0.2095
    3TYR     BB  407   4.799   5.522   3.344  0.0647  0.1378  0.1234
    3TYR    SC1  408   4.600   5.744   3.454  0.2082  0.2626  0.0988
    3TYR    SC2  409   4.384   5.856   3.569 -0.0333 -0.3082  0.2467
    3TYR    SC3  410   4.617   5.846   3.704  0.0368  0.1134  0.1743
    1TYR     BB  411   3.665   1.773   2.740  0.0085  0.0675  0.3315
    1TYR    SC1  412   3.388   1.744   2.608 -0.3166 -0.1569  0.0817
    1TYR    SC2  413   3.161   1.645   2.718 -0.4516 -0.1891 -0.2147
    1TYR    SC3  414   3.147   1.828   2.519 -0.2184 -0.2060 -0.2505
    2MET     BB  415   3.834   1.708   2.899 -0.1419 -0.0650 -0.1260
    2MET    SC1  416   3.653   1.300   2.946  0.1903 -0.0154  0.2413
    3TYR     BB  417   4.052   1.933   3.033 -0.0476 -0.1771 -0.1610
    3TYR    SC1  418   3.891   2.025   3.274  0.0473 -0.1215  0.0890
    3TYR    SC2  419   3.627   2.014   3.326  0.0499 -0.0164  0.1271
    3TYR    SC3  420   3.784   2.191   3.458  0.1632 -0.1695  0.2019
    1TYR     BB  421   3.750   4.230   2.608 -0.0984  0.0134  0.0713
    1TYR    SC1  422   4.005   4.199   2.392  0.1069 -0.1232 -0.2088
    1TYR    SC2  423   4.225   4.160   2.240  0.0988 -0.1338 -0.2178
    1TYR    SC3  424   4.075   4.381   2.205  0.2267 -0.0204 -0.0670
    2MET     BB  425   3.794   4.513   2.717 -0.1013  0.0618 -0.1333
    2MET    SC1  426   3.939   4.773   2.407 -0.2689 -0.1158  0.1456
    3TYR     BB  427   3.735   4.745   2.936  0.0332 -0.0656 -0.0627
    3TYR    SC1  428   3.851   5.041   2.858  0.5526 -0.2424  0.0046
    3TYR    SC2  429   3.972   5.214   2.688  0.3064 -0.0346  0.0341
    3TYR    SC3  430   3.973   5.263   2.952  0.1883 -0.0468  0.0382
    1TYR     BB  431   2.215   3.851   2.246  0.2747 -0.1130  0.2082
    1TYR    SC1  432   2.267   3.565   2.207  0.0777  0.1292  0.0133
    1TYR    SC2  433   2.083   3.369   2.228  0.0678  0.1401  0.0285
    1TYR    SC3  434   2.329   3.314   2.131  0.0681  0.1183  0.0414
    2MET     BB  435   2.067   4.024   2.036 -0.0598  0.0570 -0.1590
    2MET    SC1  436   1.871   3.703   1.928  0.0538  0.1128  0.1501
    3TYR     BB  437   2.070   4.150   1.784  0.1158 -0.1420  0.2216
    3TYR    SC1  438   2.288   4.173   1.567  0.3354 -0.0359  0.1157
    3TYR    SC2  439   2.271   4.227   1.302 -0.0671  0.2709  0.1894
    3TYR    SC3  440   2.513   4.196   1.420  0.1160 -0.1289 -0.2525
    1TYR     BB  441   6.932   4.094   3.578 -0.2877  0.4915 -0.2471
    1TYR    SC1  442   7.250   4.036   3.584  0.2940  0.5286 -0.1231
    1TYR    SC2  443   7.461   3.929   3.452  0.0354 -0.3209  0.0695
    1TYR    SC3  444   7.490   4.016   3.706  0.2137 -0.0873 -0.0252
    2MET     BB  445   6.761   4.352   3.562  0.0854  0.0539 -0.2530
    2MET    SC1  446   6.647   4.432   3.243  0.1317  0.0206 -0.2354
    3TYR     BB  447   6.579   4.564   3.701 -0.3634 -0.4059  0.1500
    3TYR    SC1  448   6.677   4.742   3.930  0.0285  0.0491 -0.4315
    3TYR    SC2  449   6.909   4.796   4.057 -0.1572  0.0127 -0.0563
    3TYR    SC3  450   6.712   4.980   4.054 -0.2228 -0.0580 -0.1389
    1TYR     BB  451   1.661   3.600   3.092  0.0904 -0.2335 -0.0647
    1TYR    SC1  452   1.482   3.624   2.853  0.0345  0.0758 -0.0507
    1TYR    SC2  453   1.386   3.796   2.668  0.0224 -0.4403 -0.5582
    1TYR    SC3  454   1.236   3.585   2.748  0.1254 -0.3625 -0.1272
    2MET     BB  455   1.999   3.580   3.146 -0.0606 -0.1513 -0.4043
    2MET    SC1  456   1.930   3.570   3.517  0.3244  0.2230 -0.1478
    3TYR     BB  457   2.264   3.638   3.051  0.2051 -0.1198  0.0112
    3TYR    SC1  458   2.454   3.836   2.991 -0.1118  0.0459  0.0920
    3TYR    SC2  459   2.455   4.063   2.845 -0.1899 -0.0110  0.0017
    3TYR    SC3  460   2.595   4.050   3.075  0.1523 -0.0038 -0.1974
    1TYR     BB  461   1.777   5.097   4.363  0.0701  0.4019 -0.0393
    1TYR    SC1  462   1.722   5.213   4.596  0.0367  0.0718 -0.0798
    1TYR    SC2  463   1.613   5.397   4.762  0.0138  0.0910 -0.1159
    1TYR    SC3  464   1.780   5.208   4.860 -0.0427  0.0685 -0.0622
    2MET     BB  465   1.750   5.220   4.126 -0.0380  0.0461 -0.0575
    2MET    SC1  466   1.669   5.556   4.211  0.2024 -0.0281  0.2602
    3TYR     BB  467   1.970   5.156   3.935  0.1501  0.2038  0.1575
    3TYR    SC1  468   2.233   5.366   3.905 -0.3364 -0.2931 -0.4752
    3TYR    SC2  469   2.399   5.549   3.798 -0.1906  0.1110  0.3463
    3TYR    SC3  470   2.230   5.620   3.995 -0.5963 -0.5245  0.2613
    1TYR     BB  471   3.255   4.940   3.010 -0.1120  0.0956  0.1908
    1TYR    SC1  472   3.422   5.196   3.002  0.0842 -0.2334  0.2404
    1TYR    SC2  473   3.560   5.382   2.863 -0.1989 -0.1929  0.0022
    1TYR    SC3  474   3.515   5.417   3.127 -0.3717  0.1567 -0.0650
    2MET     BB  475   3.231   4.847   2.717 -0.1003 -0.0858 -0.0067
    2MET    SC1  476   3.488   5.002   2.510 -0.1422 -0.3700  0.0998
    3TYR     BB  477   3.290   4.561   2.682  0.5000 -0.0453  0.1778
    3TYR    SC1  478   3.126   4.324   2.820 -0.0064  0.0156 -0.2075
    3TYR    SC2  479   2.970   4.107   2.854  0.0174  0.0462  0.1376
    3TYR    SC3  480   2.889   4.347   2.945  0.1737  0.1027  0.1318
    1TYR     BB  481   2.413   4.424   3.790  0.2015  0.1381  0.3456
    1TYR    SC1  482   2.289   4.216   3.931 -0.0885  0.0173 -0.0440
    1TYR    SC2  483   2.167   3.982   3.872 -0.5332  0.1670  0.2190
    1TYR    SC3  484   2.209   4.050   4.130  0.0079  0.1858  0.1397
    2MET     BB  485   2.209   4.496   3.554  0.1287 -0.1222  0.0249
    2MET    SC1  486   2.269   4.412   3.193  0.1878  0.0501  0.2222
    3TYR     BB  487   1.981   4.747   3.603 -0.4369  0.0296 -0.2394
    3TYR    SC1  488   1.752   4.664   3.443  0.0339 -0.3604  0.0367
    3TYR    SC2  489   1.586   4.715   3.236  0.4196  0.1499 -0.1736
    3TYR    SC3  490   1.761   4.511   3.221 -0.0388 -0.2791 -0.0233
    1TYR     BB  491   3.881   2.400   4.869 -0.5632 -0.2611 -0.2502
    1TYR    SC1  492   3.803   2.605   4.638 -0.0817 -0.0064  0.1251
    1TYR    SC2  493   3.905   2.734   4.423 -0.2022 -0.1742 -0.0358
    1TYR    SC3  494   3.783   2.873   4.620  0.0650 -0.0015  0.0127
    2MET     BB  495   3.732   2.344   5.046 -0.0389 -0.2914  0.1702
    2MET    SC1  496   3.919   2.031   5.263 -0.3092 -0.2933  0.1494
    3TYR     BB  497   3.524   2.306   5.240 -0.0593  0.1913 -0.1275
    3TYR    SC1  498   3.446   2.474   5.509 -0.1198  0.0935 -0.0121
    3TYR    SC2  499   3.225   2.518   5.655 -0.1723  0.1040 -0.0945
    3TYR    SC3  500   3.461   2.618   5.738 -0.1864  0.0413  0.0255
    1TYR     BB  501   2.647   5.018   2.663 -0.1365  0.2456  0.2317
    1TYR    SC1  502   2.810   5.287   2.563  0.0320 -0.1734  0.1505
    1TYR    SC2  503   2.911   5.522   2.647 -0.0379 -0.0341 -0.1371
    1TYR    SC3  504   3.076   5.315   2.595  0.0311 -0.0274  0.0443
    2MET     BB  505   2.792   4.850   2.965  0.1991  0.0354  0.0760
    2MET    SC1  506   2.506   4.884   3.245  0.2157  0.0444  0.0722
    3TYR     BB  507   2.845   5.194   3.197  0.0555 -0.2077 -0.0021
    3TYR    SC1  508   3.016   5.415   3.120  0.0364 -0.2731  0.0578
    3TYR    SC2  509   3.110   5.608   3.283  0.4603 -0.2541 -0.1904
    3TYR    SC3  510   2.950   5.673   3.075 -0.3244 -0.3053  0.3418
    1TYR     BB  511   5.822   3.866   4.557 -0.0036 -0.0568  0.2373
    1TYR    SC1  512   5.598   4.019   4.679 -0.2362 -0.2435 -0.0174
    1TYR    SC2  513   5.340   4.051   4.603 -0.2065 -0.2725 -0.1327
    1TYR    SC3  514   5.454   4.228   4.773 -0.3003 -0.2570 -0.0848
    2MET     BB  515   5.650   3.703   4.340  0.4568  0.1132  0.0407
    2MET    SC1  516   5.480   3.987   4.174 -0.2005  0.3727  0.1466
    3TYR     BB  517   5.529   3.476   4.121 -0.1014  0.0561  0.0555
    3TYR    SC1  518   5.312   3.582   3.914 -0.2721 -0.0379 -0.0178
    3TYR    SC2  519   5.277   3.826   3.804 -0.1621 -0.0079  0.0117
    3TYR    SC3  520   5.064   3.667   3.852 -0.2116 -0.0328 -0.2703
    1TYR     BB  521   0.905   3.914   4.106  0.1386 -0.0189 -0.1373
    1TYR    SC1  522   0.859   4.041   4.416  0.0927 -0.1810 -0.0871
    1TYR    SC2  523   0.950   4.044   4.671  0.1699 -0.3196 -0.1123
    1TYR    SC3  524   0.732   4.189   4.604  0.2052 -0.2075  0.0110
    2MET     BB  525   0.769   4.022   3.842 -0.0324  0.2631  0.1184
    2MET    SC1  526   0.739   3.724   3.587 -0.0337  0.1166  0.0747
    3TYR     BB  527   0.967   4.180   3.675 -0.0238 -0.0257  0.0222
    3TYR    SC1  528   0.931   4.163   3.383  0.1779  0.2654 -0.0629
    3TYR    SC2  529   0.993   4.138   3.121  0.1041 -0.1338 -0.0498
    3TYR    SC3  530   0.742   4.086   3.206  0.0747  0.1893  0.0788
    1TYR     BB  531   0.808   4.457   4.138 -0.1099 -0.0321 -0.2066
    1TYR    SC1  532   0.573   4.350   4.129 -0.3237  0.1840  0.0028
    1TYR    SC2  533   0.345   4.307   3.993 -0.1591  0.1316 -0.2646
    1TYR    SC3  534   0.418   4.137   4.190 -0.3235  0.1206 -0.2112
    2MET     BB  535   1.007   4.603   3.978 -0.0437 -0.2415  0.3134
    2MET    SC1  536   0.724   4.590   3.679  0.0664 -0.1537  0.1522
    3TYR     BB  537   1.052   4.864   3.909  0.0745 -0.1091 -0.0627
    3TYR    SC1  538   0.886   5.078   3.722 -0.1884 -0.0400 -0.0301
    3TYR    SC2  539   0.713   5.279   3.676 -0.1777 -0.0605 -0.1650
    3TYR    SC3  540   0.706   5.058   3.522 -0.0429 -0.0688 -0.1606
    1TYR     BB  541   3.373   2.931   2.551 -0.0726  0.2187  0.1479
    1TYR    SC1  542   3.459   2.891   2.249 -0.0856  0.1153 -0.0653
    1TYR    SC2  543   3.432   2.731   2.034 -0.1137  0.1210 -0.0662
    1TYR    SC3  544   3.631   2.914   2.043  0.0420 -0.0479  0.0197
    2MET     BB  545   3.449   3.095   2.755  0.1368  0.1675 -0.1544
    2MET    SC1  546   3.161   3.395   2.758  0.3068 -0.2525  0.0483
    3TYR     BB  547   3.704   3.245   2.886  0.1435 -0.0474  0.1854
    3TYR    SC1  548   3.715   3.514   2.768  0.2131 -0.3442  0.5494
    3TYR    SC2  549   3.711   3.763   2.872  0.0368 -0.2316  0.2849
    3TYR    SC3  550   3.881   3.704   2.671 -0.0501 -0.2702  0.2222
    1TYR     BB  551   1.631   4.796   5.253 -0.1203  0.0750 -0.0292
    1TYR    SC1  552   1.387   4.865   5.037  0.2595  0.0547 -0.4972
    1TYR    SC2  553   1.184   4.796   4.874 -0.0186  0.0902 -0.1784
    1TYR    SC3  554   1.347   5.000   4.806 -0.0964  0.0729 -0.4308
    2MET     BB  555   1.831   4.686   5.029  0.1078  0.0691  0.0012
    2MET    SC1  556   2.132   4.916   5.137 -0.2751  0.0837  0.0074
    3TYR     BB  557   1.750   4.706   4.658 -0.0855  0.1645 -0.3812
    3TYR    SC1  558   1.798   4.517   4.437 -0.1506 -0.0571  0.2062
    3TYR    SC2  559   1.905   4.379   4.231 -0.1629  0.2424 -0.0090
    3TYR    SC3  560   1.684   4.286   4.356 -0.1997  0.0933 -0.1792
    1TYR     BB  561   5.421   3.275   2.686  0.0377  0.0240  0.2115
    1TYR    SC1  562   5.309   2.967   2.683 -0.2434  0.0115 -0.1653
    1TYR    SC2  563   5.363   2.732   2.562 -0.1224 -0.0065 -0.0795
    1TYR    SC3  564   5.128   2.766   2.689 -0.0153 -0.1978  0.1796
    2MET     BB  565   5.494   3.520   2.966 -0.0203  0.1371  0.1510
    2MET    SC1  566   5.389   3.220   3.184  0.1374 -0.4474  0.0519
    3TYR     BB  567   5.454   3.823   2.956  0.0172 -0.2402  0.3340
    3TYR    SC1  568   5.626   4.057   2.803 -0.4479  0.1782  0.0031
    3TYR    SC2  569   5.743   4.299   2.815  0.0380 -0.0390 -0.0475
    3TYR    SC3  570   5.679   4.192   2.576  0.0122 -0.0477 -0.0368
    1TYR     BB  571   3.809   3.459   5.439  0.0507 -0.1913  0.0433
    1TYR    SC1  572   4.068   3.338   5.481  0.2032  0.1476  0.0070
    1TYR    SC2  573   4.241   3.243   5.665 -0.2068 -0.4368  0.1301
    1TYR    SC3  574   4.245   3.147   5.411  0.0308  0.0009 -0.0448
    2MET     BB  575   3.688   3.690   5.518  0.1219  0.1795  0.0209
    2MET    SC1  576   3.828   3.781   5.840 -0.1659 -0.0680 -0.0081
    3TYR     BB  577   3.546   3.896   5.401 -0.0237 -0.3224  0.3315
    3TYR    SC1  578   3.659   4.154   5.552 -0.2581  0.0069  0.2586
    3TYR    SC2  579   3.845   4.326   5.644 -0.0637  0.1182 -0.2973
    3TYR    SC3  580   3.607   4.307   5.768  0.0297  0.5449 -0.0250
    1TYR     BB  581   3.107   3.842   4.073  0.3379 -0.2787  0.1878
    1TYR    SC1  582   3.337   4.052   4.050  0.1374  0.0276  0.1453
    1TYR    SC2  583   3.546   4.213   4.105  0.1910  0.0520 -0.1145
    1TYR    SC3  584   3.438   4.210   3.857  0.0289 -0.1293 -0.0460
    2MET     BB  585   3.088   3.620   3.892 -0.0704  0.1223 -0.1391
    2MET    SC1  586   3.210   3.374   4.139 -0.0608 -0.0014 -0.0526
    3TYR     BB  587   3.141   3.547   3.582  0.0816  0.1277  0.2361
    3TYR    SC1  588   2.878   3.573   3.441  0.0894 -0.0253  0.0817
    3TYR    SC2  589   2.774   3.543   3.193  0.1291  0.1263  0.0463
    3TYR    SC3  590   2.653   3.427   3.404  0.0713  0.0312 -0.0380
    1TYR     BB  591   2.518   2.650   4.275  0.1048 -0.0589  0.0938
    1TYR    SC1  592   2.427   2.390   4.324 -0.5182  0.0254  0.3079
    1TYR    SC2  593   2.450   2.225   4.535 -0.1247 -0.1047  0.1768
    1TYR    SC3  594   2.270   2.172   4.342  0.0180 -0.4101  0.1182
    2MET     BB  595   2.677   2.726   4.015 -0.0963  0.0762 -0.3691
    2MET    SC1  596   2.856   3.019   4.207  0.0469 -0.0757 -0.1303
    3TYR     BB  597   2.677   2.501   3.819 -0.0680  0.2393  0.1090
    3TYR    SC1  598   2.497   2.579   3.592 -0.1434 -0.2737 -0.1753
    3TYR    SC2  599   2.456   2.431   3.370 -0.1680 -0.0209 -0.3441
    3TYR    SC3  600   2.267   2.605   3.454 -0.1070 -0.0247 -0.1941
    1TYR     BB  601   4.186   2.103   4.440  0.0861 -0.0289 -0.1596
    1TYR    SC1  602   4.341   2.124   4.690 -0.1319 -0.0172 -0.1339
    1TYR    SC2  603   4.315   2.114   4.958 -0.1844  0.0990 -0.1340
    1TYR    SC3  604   4.539   2.217   4.849 -0.0065 -0.2721 -0.1355
    2MET     BB  605   3.946   2.246   4.374  0.1567 -0.0220  0.0873
    2MET    SC1  606   4.086   2.305   3.977  0.4013 -0.1889 -0.2922
    3TYR     BB  607   3.679   2.178   4.342 -0.0357  0.1425  0.2553
    3TYR    SC1  608   3.472   2.192   4.562 -0.0535 -0.0411  0.0669
    3TYR    SC2  609   3.377   2.153   4.811 -0.2470  0.5478  0.1047
    3TYR    SC3  610   3.327   2.385   4.682 -0.0643  0.3003 -0.4514
    1TYR     BB  611   1.622   4.765   3.963 -0.0010 -0.1984 -0.2682
    1TYR    SC1  612   1.551   4.959   3.713 -0.0746  0.3996 -0.0001
    1TYR    SC2  613   1.612   5.118   3.503 -0.0029  0.2091 -0.1266
    1TYR    SC3  614   1.362   5.018   3.529  0.0490  0.0398 -0.2560
    2MET     BB  615   1.489   4.499   3.928  0.0753 -0.1393 -0.1415
    2MET    SC1  616   1.793   4.304   3.766 -0.2036  0.2478  0.1251
    3TYR     BB  617   1.342   4.220   3.997  0.2929 -0.2182  0.2600
    3TYR    SC1  618   1.530   3.997   4.023  0.1250  0.2993  0.2249
    3TYR    SC2  619   1.761   3.891   4.113  0.1892 -0.0750 -0.3172
    3TYR    SC3  620   1.678   3.838   3.862 -0.3874  0.2280 -0.2108
    1TYR     BB  621   4.281   5.126   4.600 -0.2216  0.3524 -0.2994
    1TYR    SC1  622   4.272   5.418   4.515 -0.0250 -0.0385  0.1104
    1TYR    SC2  623   4.197   5.674   4.476  0.0307  0.0137  0.3337
    1TYR    SC3  624   4.345   5.548   4.289 -0.1867  0.0694  0.1188
    2MET     BB  625   4.052   4.941   4.646 -0.1049  0.2234  0.4426
    2MET    SC1  626   3.997   4.790   4.309 -0.5591  0.0126 -0.0125
    3TYR     BB  627   3.938   4.727   4.826  0.1515 -0.2840  0.2098
    3TYR    SC1  628   3.944   4.465   4.663 -0.0911  0.2774 -0.1269
    3TYR    SC2  629   3.925   4.196   4.652  0.0682  0.2645 -0.1023
    3TYR    SC3  630   3.763   4.349   4.499  0.2422  0.1468 -0.4180
    1TYR     BB  631   2.670   2.037   3.590  0.0421  0.1719  0.1049
    1TYR    SC1  632   2.388   2.094   3.686  0.0250  0.2977 -0.0833
    1TYR    SC2  633   2.162   2.242   3.682 -0.1161  0.1033  0.2578
    1TYR    SC3  634   2.294   2.202   3.914  0.0799 -0.0668  0.1213
    2MET     BB  635   2.880   1.912   3.799  0.3907 -0.0559  0.0009
    2MET    SC1  636   2.697   2.024   4.109  0.0236 -0.2247  0.1345
    3TYR     BB  637   3.080   1.662   3.693  0.2425 -0.1170  0.1840
    3TYR    SC1  638   3.178   1.640   3.394  0.3813  0.1366  0.1354
    3TYR    SC2  639   3.273   1.532   3.165  0.1465 -0.0458  0.1185
    3TYR    SC3  640   3.080   1.722   3.156  0.1660 -0.0232  0.1651
    1TYR     BB  641   3.013   4.766   4.609  0.0551  0.0390  0.1566
    1TYR    SC1  642   3.280   4.805   4.469 -0.0774 -0.1815  0.3026
    1TYR    SC2  643   3.506   4.945   4.425 -0.2105 -0.0851 -0.1368
    1TYR    SC3  644   3.484   4.693   4.330 -0.3110 -0.0695 -0.1555
    2MET     BB  645   2.757   4.944   4.499  0.3010 -0.2346  0.0617
    2MET    SC1  646   2.610   5.040   4.793 -0.0432 -0.0590  0.0425
    3TYR     BB  647   2.573   5.057   4.229  0.1716 -0.1305 -0.4815
    3TYR    SC1  648   2.638   5.384   4.265  0.2480 -0.0059  0.0124
    3TYR    SC2  649   2.605   5.652   4.269  0.0455 -0.0292  0.0522
    3TYR    SC3  650   2.625   5.514   4.501 -0.3903 -0.1047  0.0548
    1TYR     BB  651   2.925   3.382   2.316  0.1485  0.2553 -0.0069
    1TYR    SC1  652   3.073   3.145   2.141 -0.1997 -0.1559 -0.0777
    1TYR    SC2  653   3.097   2.950   1.956  0.0680 -0.1936 -0.0091
    1TYR    SC3  654   3.275   3.152   1.963 -0.0947 -0.0485  0.0434
    2MET     BB  655   2.734   3.638   2.118  0.1496  0.1136 -0.0824
    2MET    SC1  656   3.083   3.711   1.894  0.2639 -0.0720  0.1234
    3TYR     BB  657   2.617   3.905   1.889 -0.0378 -0.1714  0.2729
    3TYR    SC1  658   2.388   3.765   1.766  0.1417  0.1416 -0.0393
    3TYR    SC2  659   2.263   3.533   1.703 -0.0236  0.2555 -0.1431
    3TYR    SC3  660   2.263   3.738   1.528 -0.1325  0.4367  0.0618
    1TYR     BB  661   4.210   1.625   4.255  0.2205 -0.2061 -0.0519
    1TYR    SC1  662   4.289   1.479   3.993 -0.2484 -0.0795  0.1486
    1TYR    SC2  663   4.335   1.253   3.852 -0.1824 -0.0710  0.1562
    1TYR    SC3  664   4.134   1.418   3.781  0.0124  0.0687 -0.0922
    2MET     BB  665   3.951   1.715   4.221 -0.0065 -0.4020  0.2625
    2MET    SC1  666   3.742   1.387   4.209  0.0741 -0.1132  0.1116
    3TYR     BB  667   3.831   1.901   3.920  0.0642  0.1677  0.0740
    3TYR    SC1  668   3.702   1.700   3.708 -0.3603  0.1669 -0.0708
    3TYR    SC2  669   3.630   1.463   3.600 -0.0106  0.1111 -0.1984
    3TYR    SC3  670   3.807   1.622   3.471  0.1325  0.2162  0.1154
    1TYR     BB  671   2.000   3.765   2.672 -0.0255  0.2581  0.1508
    1TYR    SC1  672   1.829   3.960   2.492  0.1307 -0.3236 -0.3681
    1TYR    SC2  673   1.650   3.966   2.290 -0.0266  0.2047 -0.2337
    1TYR    SC3  674   1.688   4.185   2.444  0.4734 -0.0135 -0.0173
    2MET     BB  675   1.895   3.487   2.673  0.1507 -0.3133 -0.0423
    2MET    SC1  676   1.668   3.455   2.420  0.0087  0.3098 -0.1675
    3TYR     BB  677   1.995   3.240   2.746  0.0745  0.0282 -0.0662
    3TYR    SC1  678   2.168   3.099   2.547  0.0869  0.1565 -0.2382
    3TYR    SC2  679   2.182   2.915   2.351 -0.0408 -0.3420  0.1905
    3TYR    SC3  680   2.404   2.981   2.490  0.0394 -0.0262 -0.0721
    1TYR     BB  681   4.159   3.799   3.711 -0.2529 -0.4101  0.2928
    1TYR    SC1  682   4.117   3.534   3.660 -0.0772  0.1024  0.0539
    1TYR    SC2  683   3.957   3.348   3.773 -0.1646  0.1777  0.0551
    1TYR    SC3  684   4.199   3.278   3.678 -0.1272  0.0955  0.2073
    2MET     BB  685   4.398   3.866   3.502  0.2087 -0.0919  0.2496
    2MET    SC1  686   4.407   3.888   3.193  0.1138 -0.1259 -0.2522
    3TYR     BB  687   4.654   3.828   3.619  0.1781  0.0677 -0.3251
    3TYR    SC1  688   4.884   3.732   3.435 -0.2510 -0.4204 -0.1030
    3TYR    SC2  689   5.138   3.664   3.380 -0.1159  0.0647 -0.1343
    3TYR    SC3  690   4.953   3.659   3.184 -0.1623 -0.3761 -0.0920
    1TYR     BB  691   2.530   3.011   4.606 -0.0994 -0.0353  0.1472
    1TYR    SC1  692   2.298   3.128   4.738  0.0610  0.0988  0.2898
    1TYR    SC2  693   2.054   3.118   4.852 -0.1309  0.1486 -0.0965
    1TYR    SC3  694   2.151   3.352   4.760  0.1266  0.1546  0.1694
    2MET     BB  695   2.726   3.007   4.880 -0.2594  0.0388  0.1166
    2MET    SC1  696   2.682   2.941   5.250  0.3007  0.1236 -0.0761
    3TYR     BB  697   3.025   2.996   4.822 -0.5259  0.0895 -0.2728
    3TYR    SC1  698   3.192   3.180   4.710 -0.1877 -0.1252 -0.4980
    3TYR    SC2  699   3.313   3.409   4.786 -0.2981 -0.1430 -0.2572
    3TYR    SC3  700   3.401   3.276   4.567  0.0243 -0.0822 -0.1727
    1TYR     BB  701   2.169   2.764   2.962 -0.0600 -0.0694 -0.2746
    1TYR    SC1  702   1.903   2.668   2.826  0.1137  0.1886 -0.1135
    1TYR    SC2  703   1.654   2.564   2.823  0.2050 -0.0616  0.1997
    1TYR    SC3  704   1.734   2.729   2.623 -0.1017 -0.2224 -0.0702
    2MET     BB  705   2.403   2.645   2.904  0.1413  0.1208  0.0527
    2MET    SC1  706   2.261   2.268   2.918 -0.2346  0.2068  0.1451
    3TYR     BB  707   2.647   2.583   2.869 -0.1797 -0.4784  0.0771
    3TYR    SC1  708   2.799   2.436   2.656 -0.2554 -0.0175 -0.0163
    3TYR    SC2  709   2.851   2.172   2.659  0.1220  0.0501  0.1142
    3TYR    SC3  710   3.045   2.346   2.594 -0.1008  0.3031  0.1053
    1TYR     BB  711   4.567   4.356   3.230  0.2320  0.2278  0.0370
    1TYR    SC1  712   4.264   4.348   3.248  0.3375 -0.4464  0.1249
    1TYR    SC2  713   4.040   4.220   3.324  0.2914 -0.2527  0.3275
    1TYR    SC3  714   4.029   4.407   3.130  0.3147 -0.3764  0.2047
    2MET     BB  715   4.688   4.387   3.548  0.3079 -0.0631  0.1469
    2MET    SC1  716   4.911   4.189   3.787 -0.0919 -0.2037  0.0014
    3TYR     BB  717   4.863   4.650   3.774  0.2095 -0.1677 -0.2516
    3TYR    SC1  718   4.646   4.648   4.018  0.0476  0.0011 -0.0180
    3TYR    SC2  719   4.616   4.773   4.256  0.1905  0.0997 -0.0502
    3TYR    SC3  720   4.421   4.610   4.163  0.0901  0.1398  0.0869
    1TYR     BB  721   6.693   3.648   3.571 -0.1874  0.1558 -0.2476
    1TYR    SC1  722   6.748   3.387   3.751  0.3518 -0.0922  0.0141
    1TYR    SC2  723   6.775   3.247   3.980 -0.1495 -0.1500  0.0517
    1TYR    SC3  724   6.836   3.131   3.745  0.0742 -0.1956  0.1288
    2MET     BB  725   6.497   3.764   3.428 -0.0304  0.1295  0.0756
    2MET    SC1  726   6.706   3.958   3.180  0.2862  0.1206  0.1307
    3TYR     BB  727   6.223   3.694   3.417  0.0225 -0.1840 -0.1529
    3TYR    SC1  728   5.977   3.811   3.356  0.2224  0.2552  0.0690
    3TYR    SC2  729   5.911   3.842   3.096  0.1765  0.2972  0.0853
    3TYR    SC3  730   5.788   3.990   3.285  0.1255  0.1831  0.1428
    1TYR     BB  731   4.776   4.111   5.295  0.1961  0.1339 -0.3982
    1TYR    SC1  732   4.977   4.173   5.507 -0.2466 -0.0280 -0.1130
    1TYR    SC2  733   5.241   4.155   5.561 -0.1630  0.0893 -0.4522
    1TYR    SC3  734   5.115   4.393   5.580 -0.2761  0.0122 -0.1773
    2MET     BB  735   4.662   4.461   5.233 -0.2300 -0.1380 -0.2546
    2MET    SC1  736   4.385   4.371   5.461 -0.1288  0.2105 -0.1305
    3TYR     BB  737   4.857   4.685   5.271  0.0117 -0.0209  0.1083
    3TYR    SC1  738   4.886   4.948   5.401 -0.2860 -0.1647 -0.3044
    3TYR    SC2  739   4.890   5.208   5.329  0.0150 -0.0676  0.0232
    3TYR    SC3  740   4.729   5.125   5.530  0.0886 -0.0869  0.0745
    1TYR     BB  741   2.231   4.360   5.070 -0.0209 -0.1421 -0.0463
    1TYR    SC1  742   2.366   4.124   5.237  0.1036  0.2831  0.3008
    1TYR    SC2  743   2.532   3.932   5.330  0.2391  0.2420 -0.0144
    1TYR    SC3  744   2.287   3.960   5.438  0.2807  0.0049  0.1525
    2MET     BB  745   2.255   4.464   4.790  0.2830  0.4132  0.4130
    2MET    SC1  746   2.162   4.183   4.549 -0.1945  0.0913 -0.2272
    3TYR     BB  747   2.541   4.571   4.701 -0.0385  0.1359  0.2992
    3TYR    SC1  748   2.729   4.395   4.874  0.0287 -0.0690 -0.2050
    3TYR    SC2  749   2.920   4.205   4.899  0.0346 -0.0523 -0.1188
    3TYR    SC3  750   2.660   4.134   4.886  0.0531 -0.0848 -0.3795
    1TYR     BB  751   6.348   4.692   2.794 -0.2657  0.1468  0.0532
    1TYR    SC1  752   6.425   4.411   2.740  0.0772  0.0722  0.1601
    1TYR    SC2  753   6.419   4.150   2.671  0.2681  0.2035 -0.4195
    1TYR    SC3  754   6.635   4.251   2.798  0.0163  0.0088  0.2072
    2MET     BB  755   6.011   4.707   2.786  0.1449  0.3101  0.1026
    2MET    SC1  756   6.013   4.537   2.468 -0.1501 -0.2135  0.1498
    3TYR     BB  757   5.803   4.935   2.726  0.1681  0.0101 -0.0715
    3TYR    SC1  758   5.781   5.121   2.958  0.0017  0.3929 -0.0931
    3TYR    SC2  759   5.752   5.092   3.225 -0.1663 -0.1139 -0.1529
    3TYR    SC3  760   5.744   5.338   3.113  0.1192  0.1288  0.3235
    1TYR     BB  761   3.165   2.771   3.886  0.1081  0.1454 -0.3589
    1TYR    SC1  762   3.317   2.718   4.172  0.1368  0.0221  0.1074
    1TYR    SC2  763   3.529   2.601   4.293  0.2223  0.0571 -0.0062
    1TYR    SC3  764   3.385   2.790   4.424  0.0373 -0.2234  0.2069
    2MET     BB  765   3.150   3.058   3.781 -0.1169  0.1780 -0.0476
    2MET    SC1  766   3.485   3.208   3.723 -0.0890 -0.1990  0.2810
    3TYR     BB  767   2.836   3.158   3.746  0.0123  0.2367  0.0076
    3TYR    SC1  768   2.811   2.913   3.522  0.0533 -0.1574  0.2646
    3TYR    SC2  769   2.891   2.689   3.396  0.0872  0.1212 -0.2404
    3TYR    SC3  770   2.728   2.863   3.270 -0.0635  0.3129  0.1974
    1TYR     BB  771   4.378   2.853   3.404 -0.2289 -0.0849 -0.1565
    1TYR    SC1  772   4.646   2.762   3.261 -0.2958 -0.2878 -0.0860
    1TYR    SC2  773   4.915   2.783   3.258 -0.3078 -0.0576  0.1050
    1TYR    SC3  774   4.785   2.680   3.044 -0.0933  0.1515 -0.1334
    2MET     BB  775   4.173   2.959   3.171 -0.0497 -0.0431 -0.0331
    2MET    SC1  776   3.889   3.089   3.364  0.0318 -0.0587  0.1022
    3TYR     BB  777   4.175   2.892   2.898  0.0904  0.2346  0.0601
    3TYR    SC1  778   4.324   2.691   2.700  0.0484  0.1447  0.1275
    3TYR    SC2  779   4.372   2.598   2.452  0.1942 -0.3551  0.3280
    3TYR    SC3  780   4.564   2.735   2.584  0.0663  0.0389  0.1234
    1TYR     BB  781   4.404   2.350   3.593  0.0818 -0.3596  0.0241
    1TYR    SC1  782   4.330   2.040   3.541  0.4776 -0.1603 -0.1094
    1TYR    SC2  783   4.193   1.807   3.526  0.0671  0.0625 -0.0147
    1TYR    SC3  784   4.405   1.850   3.364 -0.2384 -0.1291 -0.4950
    2MET     BB  785   4.688   2.504   3.649 -0.0875 -0.1826 -0.0891
    2MET    SC1  786   4.874   2.323   3.384 -0.1714 -0.0850 -0.1652
    3TYR     BB  787   4.828   2.805   3.767 -0.1174 -0.0188  0.0384
    3TYR    SC1  788   5.108   2.762   3.708 -0.0029  0.0766 -0.0635
    3TYR    SC2  789   5.327   2.776   3.550  0.0247  0.0381 -0.0287
    3TYR    SC3  790   5.242   2.537   3.643  0.0973  0.0752  0.1387
    1TYR     BB  791   4.597   5.100   4.999  0.3218 -0.1899  0.0890
    1TYR    SC1  792   4.384   5.004   5.191 -0.1993 -0.1235 -0.1747
    1TYR    SC2  793   4.210   4.812   5.265 -0.2279 -0.0078  0.0707
    1TYR    SC3  794   4.424   4.866   5.420  0.1262 -0.2573 -0.3033
    2MET     BB  795   4.686   4.878   4.784  0.2253 -0.1905 -0.2111
    2MET    SC1  796   4.436   4.654   4.662  0.1025 -0.0877 -0.0519
    3TYR     BB  797   4.932   4.828   4.590  0.2346  0.2401  0.0367
    3TYR    SC1  798   4.895   4.518   4.451  0.0308  0.0561 -0.0083
    3TYR    SC2  799   4.788   4.331   4.289  0.2166 -0.0407 -0.0228
    3TYR    SC3  800   5.051   4.325   4.347  0.2072  0.1628  0.0527
    1TYR     BB  801   4.595   2.411   4.193  0.1099  0.1312  0.0448
    1TYR    SC1  802   4.632   2.706   4.282  0.0337 -0.1550  0.0682
    1TYR    SC2  803   4.706   2.863   4.489  0.0237 -0.0260 -0.0245
    1TYR    SC3  804   4.686   2.967   4.241 -0.1915 -0.1251 -0.0514
    2MET     BB  805   4.906   2.358   4.047  0.1979  0.0240 -0.2590
    2MET    SC1  806   5.123   2.640   4.197 -0.1553  0.0453  0.0240
    3TYR     BB  807   5.060   2.125   3.831  0.0291 -0.0371  0.0353
    3TYR    SC1  808   5.353   2.161   3.831 -0.1454 -0.1239  0.5401
    3TYR    SC2  809   5.588   2.102   3.951  0.3184  0.2286 -0.1109
    3TYR    SC3  810   5.513   2.360   3.920 -0.1533  0.1233  0.0478
    1TYR     BB  811   2.330   3.118   4.121 -0.0408 -0.0677 -0.0897
    1TYR    SC1  812   2.353   3.104   3.837  0.0966  0.2070  0.0718
    1TYR    SC2  813   2.297   3.041   3.580 -0.4857 -0.0240  0.2368
    1TYR    SC3  814   2.305   3.300   3.657 -0.2650  0.0488 -0.0148
    2MET     BB  815   2.052   3.062   4.290 -0.1335  0.1914 -0.0407
    2MET    SC1  816   2.139   2.709   4.518  0.1862  0.0642 -0.0510
    3TYR     BB  817   1.808   2.936   4.185 -0.0642  0.0319  0.2248
    3TYR    SC1  818   1.903   2.697   4.012  0.0982 -0.1865  0.0063
    3TYR    SC2  819   1.930   2.560   3.782 -0.0394 -0.0823 -0.0747
    3TYR    SC3  820   2.148   2.620   3.929  0.1298  0.3390 -0.4675
    1TYR     BB  821   3.353   2.213   2.958 -0.1718 -0.0509  0.1156
    1TYR    SC1  822   3.510   2.277   2.686 -0.3431 -0.1016  0.1022
    1TYR    SC2  823   3.533   2.424   2.460 -0.1066 -0.1088  0.1192
    1TYR    SC3  824   3.579   2.157   2.454 -0.3046 -0.1452  0.1361
    2MET     BB  825   3.116   2.451   3.060  0.1175 -0.0616  0.1807
    2MET    SC1  826   2.883   2.169   3.125  0.2739 -0.0764 -0.2290
    3TYR     BB  827   3.101   2.704   2.974  0.1852 -0.1427  0.0330
    3TYR    SC1  828   3.130   3.002   3.121  0.0819  0.2679 -0.1947
    3TYR    SC2  829   3.028   3.194   3.280  0.1483  0.1751 -0.0377
    3TYR    SC3  830   3.292   3.191   3.224  0.2352 -0.1167  0.3277
    1TYR     BB  831   7.011   4.945   3.604 -0.2719  0.0401 -0.2537
    1TYR    SC1  832   6.951   5.230   3.691 -0.0861  0.0906 -0.1209
    1TYR    SC2  833   6.849   5.381   3.889  0.3095  0.0728  0.1126
    1TYR    SC3  834   6.950   5.499   3.668  0.2813  0.1229  0.1261
    2MET     BB  835   6.916   4.871   3.349 -0.0254 -0.1405 -0.0286
    2MET    SC1  836   6.748   5.067   3.026 -0.0635 -0.0246 -0.3617
    3TYR     BB  837   7.182   4.788   3.092  0.2699  0.0453 -0.0968
    3TYR    SC1  838   7.172   4.473   3.001  0.2388 -0.1844  0.0298
    3TYR    SC2  839   7.084   4.223   3.051  0.0955 -0.1614 -0.0981
    3TYR    SC3  840   7.112   4.307   2.796 -0.1526  0.0522 -0.0592
    1TYR     BB  841   5.120   3.174   4.064  0.1483 -0.1607  0.1247
    1TYR    SC1  842   5.374   3.026   3.959 -0.1004 -0.2190  0.0270
    1TYR    SC2  843   5.532   2.809   3.932  0.1756 -0.0568  0.2729
    1TYR    SC3  844   5.637   3.058   3.905 -0.0855  0.0518  0.2287
    2MET     BB  845   5.139   3.195   4.402  0.2758  0.3659 -0.0377
    2MET    SC1  846   5.462   3.048   4.429  0.2384 -0.1612 -0.0342
    3TYR     BB  847   5.183   3.457   4.506 -0.1545 -0.0062 -0.1089
    3TYR    SC1  848   5.047   3.686   4.359  0.2511  0.0855  0.1420
    3TYR    SC2  849   5.033   3.912   4.211  0.0699 -0.0990 -0.1337
    3TYR    SC3  850   4.823   3.837   4.364  0.1456 -0.0633 -0.0101
    1TYR     BB  851   4.967   2.376   4.586 -0.1710  0.1686  0.1793
    1TYR    SC1  852   5.274   2.427   4.651 -0.5018  0.2986  0.2300
    1TYR    SC2  853   5.472   2.610   4.649 -0.4100  0.2061 -0.1475
    1TYR    SC3  854   5.457   2.430   4.849  0.3568 -0.2700 -0.4636
    2MET     BB  855   4.948   2.119   4.468  0.1094  0.1035 -0.0013
    2MET    SC1  856   5.234   2.064   4.288 -0.2572 -0.2079 -0.0479
    3TYR     BB  857   4.731   1.823   4.381  0.0436  0.2255  0.0834
    3TYR    SC1  858   4.670   1.892   4.088  0.2538  0.1795 -0.1327
    3TYR    SC2  859   4.512   2.034   3.921 -0.0255  0.0729  0.0332
    3TYR    SC3  860   4.654   1.826   3.827 -0.0797  0.0931 -0.0961
    1TYR     BB  861   3.208   4.308   4.441 -0.1543  0.4029  0.1091
    1TYR    SC1  862   2.909   4.233   4.452  0.0907 -0.2799  0.1603
    1TYR    SC2  863   2.663   4.250   4.343  0.0418 -0.2732  0.2707
    1TYR    SC3  864   2.776   4.009   4.384  0.0887 -0.2735  0.1429
    2MET     BB  865   3.303   4.373   4.744  0.1126  0.1052 -0.0348
    2MET    SC1  866   3.393   4.090   4.961  0.1333  0.1023 -0.3124
    3TYR     BB  867   3.457   4.558   4.883  0.1293 -0.0421 -0.0763
    3TYR    SC1  868   3.248   4.727   5.020  0.0016  0.0285  0.1341
    3TYR    SC2  869   3.111   4.959   5.012 -0.0543 -0.0089 -0.0430
    3TYR    SC3  870   2.991   4.735   5.100 -0.0133  0.0186  0.0870
    1TYR     BB  871   1.560   2.678   3.332 -0.0141 -0.2415  0.0094
    1TYR    SC1  872   1.692   2.406   3.240 -0.2248  0.1038 -0.4248
    1TYR    SC2  873   1.920   2.268   3.279 -0.1407  0.3623  0.1381
    1TYR    SC3  874   1.747   2.193   3.084  0.2924  0.0074 -0.1353
    2MET     BB  875   1.836   2.897   3.410 -0.0801  0.0093 -0.0034
    2MET    SC1  876   1.850   3.125   3.723 -0.3055 -0.1785 -0.0867
    3TYR     BB  877   1.852   3.100   3.189 -0.1248 -0.3611  0.0451
    3TYR    SC1  878   1.659   3.043   2.967 -0.0134  0.0399  0.0943
    3TYR    SC2  879   1.423   2.926   2.906  0.0920 -0.1038 -0.0463
    3TYR    SC3  880   1.471   3.181   2.831  0.1218 -0.1953 -0.3558
    1TYR     BB  881   5.661   4.190   3.705 -0.0821  0.0045  0.0284
    1TYR    SC1  882   5.459   4.354   3.765 -0.0531 -0.0684  0.0492
    1TYR    SC2  883   5.351   4.443   3.996 -0.1884  0.1214 -0.0852
    1TYR    SC3  884   5.408   4.617   3.797 -0.0722 -0.0403 -0.1956
    2MET     BB  885   5.947   4.283   3.727 -0.0635  0.1930  0.2359
    2MET    SC1  886   5.950   4.655   3.771 -0.0382  0.1387  0.2080
    3TYR     BB  887   6.275   4.184   3.559  0.0801  0.1896 -0.2516
    3TYR    SC1  888   6.212   4.189   3.264  0.1210 -0.3087 -0.2151
    3TYR    SC2  889   6.245   4.026   3.052 -0.0523 -0.1607 -0.3619
    3TYR    SC3  890   6.106   4.255   3.024 -0.1066 -0.1542 -0.0775
    1TYR     BB  891   6.839   3.823   2.746 -0.4104  0.1019  0.0235
    1TYR    SC1  892   6.760   3.674   2.460 -0.0841 -0.0637  0.0070
    1TYR    SC2  893   6.761   3.730   2.196  0.0482 -0.1001 -0.0015
    1TYR    SC3  894   6.818   3.481   2.281 -0.1430 -0.1262  0.0550
    2MET     BB  895   6.996   3.605   2.915  0.2667 -0.1547 -0.1477
    2MET    SC1  896   6.796   3.323   2.762 -0.3171  0.3711 -0.0831
    3TYR     BB  897   7.044   3.648   3.245  0.1745 -0.1678  0.1364
    3TYR    SC1  898   7.225   3.559   3.525  0.0521 -0.2265 -0.1267
    3TYR    SC2  899   7.217   3.372   3.719 -0.1373 -0.1345 -0.0426
    3TYR    SC3  900   7.399   3.570   3.732 -0.2577 -0.0320  0.1353
    1TYR     BB  901   5.664   4.831   4.152  0.0299 -0.3561  0.1631
    1TYR    SC1  902   5.743   4.501   4.189  0.1146  0.2710  0.1639
    1TYR    SC2  903   5.865   4.260   4.198 -0.1970  0.0958 -0.0380
    1TYR    SC3  904   5.747   4.359   4.419 -0.0615  0.0702  0.0475
    2MET     BB  905   5.764   5.094   4.173  0.0938 -0.0774  0.0589
    2MET    SC1  906   6.164   4.955   4.070 -0.1619  0.3074 -0.2650
    3TYR     BB  907   5.853   5.399   4.014  0.0456 -0.0504 -0.0932
    3TYR    SC1  908   5.950   5.286   3.767 -0.0012  0.1006 -0.2348
    3TYR    SC2  909   5.974   5.361   3.509  0.0639 -0.2175 -0.3277
    3TYR    SC3  910   6.038   5.109   3.582  0.0932 -0.1183  0.0103
    1TYR     BB  911   3.148   3.934   5.661  0.2333 -0.2655  0.0904
    1TYR    SC1  912   3.186   3.637   5.753  0.3801 -0.0571  0.0081
    1TYR    SC2  913   3.331   3.448   5.883 -0.0575 -0.1666  0.3640
    1TYR    SC3  914   3.061   3.430   5.873 -0.0682  0.0418 -0.2605
    2MET     BB  915   3.057   3.970   5.376  0.0130 -0.1754  0.1303
    2MET    SC1  916   3.220   4.369   5.330  0.1063 -0.1496 -0.0876
    3TYR     BB  917   3.068   3.863   5.168  0.4332  0.0442  0.0407
    3TYR    SC1  918   3.165   3.567   5.136  0.2762 -0.0880 -0.1256
    3TYR    SC2  919   3.089   3.312   5.182 -0.0449  0.0259  0.0089
    3TYR    SC3  920   3.257   3.434   5.353  0.0047 -0.0518  0.0165
    1TYR     BB  921   4.026   3.957   4.181 -0.0879  0.0346 -0.0554
    1TYR    SC1  922   3.796   3.806   4.030 -0.0666  0.1288 -0.2907
    1TYR    SC2  923   3.585   3.650   3.966 -0.1052  0.0181  0.0753
    1TYR    SC3  924   3.666   3.844   3.796 -0.1558 -0.2892 -0.3188
    2MET     BB  925   4.116   4.114   4.204 -0.0198  0.1480 -0.1041
    2MET    SC1  926   4.427   4.127   3.974  0.0648 -0.1003 -0.1653
    3TYR     BB  927   4.355   4.200   4.492 -0.1389  0.2620  0.0295
    3TYR    SC1  928   4.410   3.966   4.639  0.2037 -0.0543 -0.1468
    3TYR    SC2  929   4.467   3.708   4.691 -0.0061 -0.0438  0.1640
    3TYR    SC3  930   4.350   3.861   4.879  0.2995  0.3375  0.0585
    1TYR     BB  931   3.639   3.105   5.752 -0.3413  0.1430 -0.1565
    1TYR    SC1  932   3.335   3.061   5.641  0.2189  0.0143 -0.0547
    1TYR    SC2  933   3.074   3.107   5.588  0.2144 -0.0358 -0.0755
    1TYR    SC3  934   3.217   2.940   5.431  0.1880 -0.2257  0.0972
    2MET     BB  935   3.840   2.947   5.887  0.0776  0.1126 -0.0188
    2MET    SC1  936   3.943   3.303   6.115 -0.1672  0.2585  0.1861
    3TYR     BB  937   4.068   2.770   5.823 -0.1179  0.2917 -0.0179
    3TYR    SC1  938   4.338   2.844   5.836 -0.1009  0.1482  0.0183
    3TYR    SC2  939   4.561   2.908   5.697 -0.0861  0.0340 -0.0117
    3TYR    SC3  940   4.571   2.887   5.966 -0.0305 -0.0862 -0.0217
    1TYR     BB  941   6.519   5.087   3.534 -0.1231 -0.1568  0.0425
    1TYR    SC1  942   6.534   5.364   3.480 -0.1970 -0.0211  0.3415
    1TYR    SC2  943   6.542   5.632   3.449  0.0966 -0.0496  0.1072
    1TYR    SC3  944   6.662   5.473   3.268 -0.3320 -0.3575  0.0761
    2MET     BB  945   6.341   4.889   3.228  0.1487 -0.0791 -0.3293
    2MET    SC1  946   6.246   5.182   3.059 -0.2573 -0.1958 -0.4144
    3TYR     BB  947   6.220   4.666   3.308 -0.2692 -0.0130  0.1938
    3TYR    SC1  948   5.883   4.577   3.285 -0.1035  0.3826  0.1359
    3TYR    SC2  949   5.655   4.435   3.303 -0.0610  0.2572 -0.2262
    3TYR    SC3  950   5.667   4.685   3.405 -0.1752  0.0587  0.3092
    1TYR     BB  951   3.352   3.879   2.624 -0.0508 -0.2518  0.0488
    1TYR    SC1  952   3.303   3.826   2.905  0.0235  0.3431  0.0117
    1TYR    SC2  953   3.113   3.732   3.072 -0.0474  0.3674 -0.0544
    1TYR    SC3  954   3.366   3.766   3.160 -0.0646  0.2971  0.0232
    2MET     BB  955   3.319   3.752   2.367  0.2575 -0.0219  0.1322
    2MET    SC1  956   3.661   3.920   2.233  0.0570 -0.0295 -0.2874
    3TYR     BB  957   3.429   3.460   2.368 -0.0259 -0.2296  0.0021
    3TYR    SC1  958   3.549   3.455   2.066  0.5350 -0.2126  0.1511
    3TYR    SC2  959   3.614   3.594   1.843  0.1351 -0.0388  0.1315
    3TYR    SC3  960   3.733   3.358   1.895  0.5053  0.0937 -0.0684
    1TYR     BB  961   4.199   3.153   4.506 -0.1359  0.1410  0.0446
    1TYR    SC1  962   4.444   3.284   4.535  0.0228 -0.2299  0.0639
    1TYR    SC2  963   4.688   3.345   4.440 -0.0708 -0.1264 -0.1170
    1TYR    SC3  964   4.662   3.251   4.692  0.1506 -0.1115 -0.0850
    2MET     BB  965   3.924   3.363   4.577 -0.0621 -0.2631 -0.3686
    2MET    SC1  966   3.798   3.288   4.227  0.2618 -0.0129 -0.0491
    3TYR     BB  967   4.015   3.641   4.559 -0.1164  0.0259  0.2273
    3TYR    SC1  968   3.850   3.775   4.751  0.2075  0.1735  0.0554
    3TYR    SC2  969   3.814   3.794   5.018  0.2728 -0.0276  0.0809
    3TYR    SC3  970   3.618   3.692   4.862  0.4340 -0.4260  0.1258
    1TYR     BB  971   5.973   4.310   4.895  0.0271 -0.1036  0.1697
    1TYR    SC1  972   5.774   4.249   5.102 -0.4112  0.1269  0.0808
    1TYR    SC2  973   5.795   4.363   5.346  0.3286 -0.0294  0.1199
    1TYR    SC3  974   5.614   4.168   5.304 -0.1112  0.2945  0.4009
    2MET     BB  975   6.182   4.194   4.783 -0.1986  0.1688 -0.0624
    2MET    SC1  976   6.374   4.360   4.566  0.2719  0.0129 -0.1012
    3TYR     BB  977   6.221   3.789   4.812  0.0921 -0.2167 -0.3144
    3TYR    SC1  978   6.500   3.776   4.733 -0.1216  0.1351 -0.3049
    3TYR    SC2  979   6.729   3.915   4.765  0.1042 -0.2686 -0.0517
    3TYR    SC3  980   6.705   3.741   4.560  0.0086 -0.2044 -0.0957
    1TYR     BB  981   5.920   3.401   2.670 -0.0816 -0.0422  0.1682
    1TYR    SC1  982   5.906   3.715   2.583 -0.1600  0.1672  0.0629
    1TYR    SC2  983   6.057   3.938   2.618 -0.3210  0.2417  0.3214
    1TYR    SC3  984   5.944   3.886   2.377  0.1941  0.1275  0.0868
    2MET     BB  985   5.944   3.343   2.915  0.0374 -0.2092  0.1499
    2MET    SC1  986   5.758   2.960   2.898  0.1616 -0.0981  0.0739
    3TYR     BB  987   5.899   3.359   3.179 -0.1227 -0.0296  0.2473
    3TYR    SC1  988   5.894   3.135   3.328  0.2381  0.0038  0.1225
    3TYR    SC2  989   5.742   2.988   3.495  0.0515  0.2620  0.1869
    3TYR    SC3  990   5.973   2.885   3.399 -0.0867 -0.0818  0.2008
    1TYR     BB  991   2.712   3.537   4.893 -0.1725 -0.0043  0.0022
    1TYR    SC1  992   2.458   3.715   4.950  0.0954  0.3338  0.1549
    1TYR    SC2  993   2.262   3.862   4.835 -0.0376  0.2507  0.2713
    1TYR    SC3  994   2.210   3.714   5.054 -0.0556 -0.3891 -0.1310
    2MET     BB  995   2.871   3.654   4.690 -0.4484  0.1737 -0.0799
    2MET    SC1  996   2.855   3.459   4.416 -0.0485  0.0708 -0.2635
    3TYR     BB  997   3.081   3.825   4.675 -0.4808  0.0053  0.1307
    3TYR    SC1  998   3.328   3.800   4.513 -0.0700  0.2498 -0.3452
    3TYR    SC2  999   3.550   3.662   4.447  0.0333 -0.0180  0.4391
    3TYR    SC3 1000   3.558   3.932   4.459  0.1400  0.0142 -0.0610
   7.65113   7.65113   7.65113
