; RUN CONTROL PARAMETERS = 
; MARTINI - Most simulations are stable with dt=40 fs,
; some (especially rings) require 20-30 fs.
; The range of time steps used for parametrization  
; is 20-40 fs, using smaller time steps is therefore not recommended.

integrator               = md
; start time and timestep in ps
tinit                    = 0.0
dt                       = 0.025
nsteps                   = 500000
; number of steps for center of mass motion removal = 
nstcomm                  = 100
comm-grps		 = 

; OUTPUT CONTROL OPTIONS = 
; Output frequency for coords (x), velocities (v) and forces (f) = 
nstxout                  = 0
nstvout                  = 0
nstfout                  = 0
; Output frequency for energies to log file and energy file = 
nstlog                   = 5000
nstenergy                = 5000
; Output frequency and precision for xtc file = 
nstxout-compressed       = 5000
compressed-x-precision   = 100
; This selects the subset of atoms for the xtc file. You can = 
; select multiple groups. By default all atoms will be written. = 
xtc-grps                 = 
; Selection of energy groups = 
energygrps               = 

; NEIGHBORSEARCHING PARAMETERS = 
; MARTINI - no need for more frequent updates 
; or larger neighborlist cut-off due
; to the use of shifted potential energy functions.

cutoff-scheme            = Verlet
; nblist update frequency = 
nstlist                  = 20
; ns algorithm (simple or grid) = 
ns_type                  = grid
; Periodic boundary conditions: xyz or no = 
pbc                      = xyz 
; nblist cut-off         = 
rlist                    = 1.1
verlet-buffer-tolerance  = 0.05


; OPTIONS FOR ELECTROSTATICS AND VDW = 
; MARTINI - vdw and electrostatic interactions are used
; in their shifted forms. Changing to other types of
; electrostatics will affect the general performance of
; the model.

; Method for doing electrostatics = 
coulombtype              = reaction-field 
rcoulomb                 = 1.1
; Dielectric constant (DC) for cut-off or DC of reaction field = 
epsilon_r                = 15
epsilon_rf               = 0
; Method for doing Van der Waals = 
vdw_type                 = cut-off
; cut-off lengths        = 
rvdw                     = 1.1
vdw-modifier             = Potential-shift-verlet
; Apply long range dispersion corrections for Energy and Pressure = 
DispCorr                 = No

; OPTIONS FOR WEAK COUPLING ALGORITHMS = 
; MARTINI - normal temperature and pressure coupling schemes 
; can be used. It is recommended to couple individual groups
; in your system seperately.

; Temperature coupling   
tcoupl                   = v-rescale
tau_t                    = 1.0 1.0
tc-grps                  = protein non-protein 
ref_t                    = 303 303
Pcoupl                   = Berendsen  
Pcoupltype               = isotropic
tau_p                    = 3.0  
compressibility          = 3e-4 
ref_p                    = 1.0 

; GENERATE VELOCITIES FOR STARTUP RUN = 
gen_vel                  = yes 
gen_temp                 = 303
gen_seed                 = 1234

; OPTIONS FOR BONDS     = 
; MARTINI - for ring systems constraints are defined
; which are best handled using Lincs. 

constraints              = none 
; Type of constraint algorithm 
constraint_algorithm     = Lincs
; Do not constrain the start configuration = 
continuation      = no
; Highest order in the expansion of the constraint coupling matrix = 
lincs_order              = 4
; Lincs will write a warning to the stderr if in one step a bond = 
; rotates over more degrees than = 
lincs_warnangle          = 30

