Generated by trjconv : Martini system from ../2_Creating_coordinates/TYR-LEU-TYR_aa.pdb t=   0.00000
  910
    1TYR     BB    1   3.615   5.382   2.421  0.2557 -0.2967 -0.1657
    1TYR    SC1    2   3.660   5.094   2.374 -0.0314 -0.0592  0.1950
    1TYR    SC2    3   3.819   4.927   2.234 -0.0935  0.1303 -0.1137
    1TYR    SC3    4   3.613   4.828   2.377  0.2738 -0.1168  0.2726
    2LEU     BB    5   3.411   5.414   2.673  0.1703  0.1888  0.0176
    2LEU    SC1    6   3.254   5.121   2.659 -0.0224 -0.0915  0.0830
    3TYR     BB    7   3.288   5.653   2.707  0.0403  0.0261  0.2321
    3TYR    SC1    8   2.974   5.690   2.759 -0.2814  0.1039 -0.2115
    3TYR    SC2    9   2.726   5.663   2.655 -0.3107  0.3315 -0.2075
    3TYR    SC3   10   2.757   5.755   2.907 -0.2309  0.0035 -0.0917
    1TYR     BB   11   3.157   5.469   3.172  0.3515  0.0544 -0.0638
    1TYR    SC1   12   3.427   5.579   3.190  0.0386 -0.2354  0.0632
    1TYR    SC2   13   3.661   5.713   3.182  0.0500 -0.2522  0.1115
    1TYR    SC3   14   3.657   5.447   3.141  0.0285 -0.2390  0.0253
    2LEU     BB   15   3.218   5.118   3.143  0.3465  0.0897  0.2884
    2LEU    SC1   16   2.996   4.980   3.356  0.1748  0.2660  0.0534
    3TYR     BB   17   3.371   4.864   3.005 -0.2841 -0.2644  0.1668
    3TYR    SC1   18   3.305   4.590   3.129  0.0985 -0.0500 -0.1044
    3TYR    SC2   19   3.366   4.413   3.323 -0.0072  0.2033  0.1689
    3TYR    SC3   20   3.233   4.331   3.103  0.1696 -0.1004  0.1678
    1TYR     BB   21   1.634   3.573   2.802 -0.3204 -0.0061  0.0501
    1TYR    SC1   22   1.483   3.475   3.038 -0.0659  0.1239 -0.0916
    1TYR    SC2   23   1.443   3.484   3.305  0.0705 -0.0056 -0.0657
    1TYR    SC3   24   1.331   3.287   3.159 -0.3441  0.2912 -0.1691
    2LEU     BB   25   1.742   3.487   2.566 -0.1227  0.3652  0.1148
    2LEU    SC1   26   1.988   3.276   2.682  0.0324  0.2466  0.0671
    3TYR     BB   27   1.741   3.302   2.269 -0.0429 -0.1926 -0.4352
    3TYR    SC1   28   1.901   3.006   2.297 -0.2412 -0.0144 -0.0523
    3TYR    SC2   29   2.091   2.816   2.269 -0.1710  0.0333  0.0898
    3TYR    SC3   30   1.969   2.918   2.051  0.0079  0.0442 -0.0079
    1TYR     BB   31   4.746   4.709   2.916 -0.1559 -0.1831  0.0881
    1TYR    SC1   32   4.782   4.476   3.076 -0.3157  0.0839 -0.2743
    1TYR    SC2   33   4.842   4.396   3.327 -0.5015  0.4719 -0.0952
    1TYR    SC3   34   4.791   4.213   3.135 -0.2144  0.1652  0.1077
    2LEU     BB   35   4.466   4.754   2.756 -0.0173 -0.2730  0.0958
    2LEU    SC1   36   4.578   5.058   2.646 -0.0861  0.2586  0.0124
    3TYR     BB   37   4.172   4.790   2.701  0.2030  0.1340 -0.0324
    3TYR    SC1   38   3.996   4.955   2.840  0.0732  0.0117 -0.0443
    3TYR    SC2   39   3.892   5.082   3.055  0.0090 -0.1684  0.0340
    3TYR    SC3   40   3.782   5.117   2.811  0.2529  0.2580 -0.0264
    1TYR     BB   41   2.331   2.395   3.054 -0.0111  0.3177  0.1330
    1TYR    SC1   42   2.303   2.658   2.857 -0.1325 -0.0495 -0.2738
    1TYR    SC2   43   2.302   2.923   2.804 -0.0973 -0.0041 -0.0590
    1TYR    SC3   44   2.413   2.750   2.629  0.0138  0.1382 -0.1315
    2LEU     BB   45   2.098   2.198   3.066 -0.3284 -0.1223  0.0460
    2LEU    SC1   46   2.153   1.953   3.260 -0.0615 -0.1459 -0.0800
    3TYR     BB   47   1.839   2.223   2.958  0.1170 -0.2111  0.3600
    3TYR    SC1   48   1.601   2.110   3.093  0.0319  0.0169 -0.0017
    3TYR    SC2   49   1.340   2.088   3.158 -0.0149  0.0110 -0.1845
    3TYR    SC3   50   1.528   1.979   3.317 -0.1348 -0.1376 -0.1417
    1TYR     BB   51   1.621   1.518   4.473  0.1959 -0.0778  0.3284
    1TYR    SC1   52   1.539   1.244   4.353  0.2784 -0.0949  0.1229
    1TYR    SC2   53   1.299   1.131   4.308  0.1020  0.2181  0.2381
    1TYR    SC3   54   1.495   1.109   4.123 -0.0946  0.1689  0.0287
    2LEU     BB   55   1.338   1.670   4.420 -0.1982  0.2306  0.0668
    2LEU    SC1   56   1.290   1.640   4.114  0.2793  0.4465  0.0745
    3TYR     BB   57   1.170   1.887   4.567  0.1268  0.0220  0.4992
    3TYR    SC1   58   1.144   2.063   4.814  0.0004 -0.0352  0.1319
    3TYR    SC2   59   1.174   2.098   5.081  0.2192 -0.0620  0.1133
    3TYR    SC3   60   1.154   2.312   4.918  0.0190 -0.0459  0.1560
    1TYR     BB   61   2.727   5.017   1.970  0.0498  0.1278 -0.1174
    1TYR    SC1   62   2.885   4.769   1.831 -0.1538  0.0671 -0.2208
    1TYR    SC2   63   3.046   4.625   1.670  0.1129  0.0069  0.0879
    1TYR    SC3   64   2.781   4.637   1.619  0.1435 -0.2606 -0.1722
    2LEU     BB   65   2.673   4.895   2.285 -0.2661  0.1398  0.1099
    2LEU    SC1   66   2.815   5.170   2.443  0.1332  0.0924 -0.0704
    3TYR     BB   67   2.650   4.696   2.407 -0.0121 -0.1252  0.0085
    3TYR    SC1   68   2.768   4.625   2.670  0.0549 -0.1138  0.1564
    3TYR    SC2   69   3.015   4.545   2.743  0.3174  0.4606 -0.0322
    3TYR    SC3   70   2.899   4.755   2.867 -0.1220  0.1539  0.1053
    1TYR     BB   71   3.005   3.469   5.424 -0.3271  0.2421 -0.4108
    1TYR    SC1   72   3.027   3.404   5.722 -0.2838  0.0824 -0.0507
    1TYR    SC2   73   3.174   3.547   5.897 -0.1572  0.1047 -0.1727
    1TYR    SC3   74   2.939   3.439   5.974 -0.1980  0.2792 -0.0460
    2LEU     BB   75   3.092   3.828   5.394 -0.0144  0.0245  0.0180
    2LEU    SC1   76   2.930   3.914   5.096 -0.0480  0.2192 -0.1217
    3TYR     BB   77   3.104   4.013   5.599 -0.1941 -0.0930  0.4341
    3TYR    SC1   78   3.026   4.309   5.541 -0.0098 -0.0983 -0.3821
    3TYR    SC2   79   2.910   4.439   5.335 -0.0585  0.1478 -0.2057
    3TYR    SC3   80   2.931   4.559   5.576 -0.1518 -0.1935 -0.0184
    1TYR     BB   81   1.571   2.636   3.056 -0.0558 -0.2350  0.1211
    1TYR    SC1   82   1.252   2.570   2.986  0.0910 -0.1342 -0.0367
    1TYR    SC2   83   1.076   2.381   2.908 -0.0281 -0.0263 -0.0325
    1TYR    SC3   84   1.067   2.628   2.799  0.0942 -0.0073 -0.0017
    2LEU     BB   85   1.584   2.885   2.873 -0.2155 -0.1365 -0.0908
    2LEU    SC1   86   1.851   2.774   2.723  0.1939 -0.1573  0.1349
    3TYR     BB   87   1.464   3.088   2.744 -0.1558  0.2224  0.2043
    3TYR    SC1   88   1.107   3.064   2.780  0.0697 -0.0529 -0.0342
    3TYR    SC2   89   0.959   3.232   2.931 -0.1008 -0.1701 -0.0679
    3TYR    SC3   90   0.843   3.019   2.812 -0.0116  0.0186 -0.5172
    1TYR     BB   91   2.590   4.238   5.748 -0.2112  0.3612  0.3061
    1TYR    SC1   92   2.412   4.496   5.702 -0.0097 -0.2060 -0.1458
    1TYR    SC2   93   2.302   4.672   5.875 -0.0092 -0.2906 -0.0582
    1TYR    SC3   94   2.492   4.754   5.701 -0.0341 -0.1975 -0.0420
    2LEU     BB   95   2.566   4.039   5.493 -0.0537 -0.5482  0.0229
    2LEU    SC1   96   2.719   3.776   5.658  0.1872 -0.0044 -0.2172
    3TYR     BB   97   2.312   4.138   5.356 -0.2414 -0.2621 -0.2703
    3TYR    SC1   98   2.263   4.473   5.265 -0.1033  0.2796  0.0932
    3TYR    SC2   99   2.496   4.607   5.245 -0.0575  0.1738 -0.1135
    3TYR    SC3  100   2.275   4.701   5.121 -0.1320  0.2833  0.0962
    1TYR     BB  101   2.905   2.002   4.700  0.0517 -0.1294 -0.4116
    1TYR    SC1  102   3.071   1.765   4.746  0.2543  0.2781 -0.1999
    1TYR    SC2  103   3.320   1.708   4.658  0.3103 -0.0348  0.1300
    1TYR    SC3  104   3.158   1.509   4.742 -0.1111  0.1468 -0.2061
    2LEU     BB  105   2.643   2.078   4.776  0.3498 -0.2968 -0.2904
    2LEU    SC1  106   2.431   2.208   4.571  0.3116  0.0990 -0.3590
    3TYR     BB  107   2.520   2.110   5.088  0.0006 -0.0805 -0.3627
    3TYR    SC1  108   2.247   1.950   5.189 -0.0129  0.3262  0.3248
    3TYR    SC2  109   2.179   1.813   5.411 -0.1131 -0.1907 -0.0033
    3TYR    SC3  110   2.005   1.831   5.205  0.0511  0.1077 -0.1229
    1TYR     BB  111   1.317   2.333   4.483  0.0224 -0.2220  0.4129
    1TYR    SC1  112   1.133   2.555   4.486  0.6167  0.6701 -0.2966
    1TYR    SC2  113   0.917   2.716   4.476 -0.0049 -0.0467  0.1808
    1TYR    SC3  114   1.090   2.737   4.681 -0.1209 -0.0263  0.2781
    2LEU     BB  115   1.257   2.216   4.148 -0.0441 -0.1604  0.0619
    2LEU    SC1  116   0.957   2.140   4.112  0.2082 -0.0280  0.1565
    3TYR     BB  117   1.392   2.175   3.848  0.1983 -0.0913 -0.0974
    3TYR    SC1  118   1.271   2.316   3.629 -0.1338  0.1700 -0.0834
    3TYR    SC2  119   1.353   2.457   3.414  0.1027 -0.2850 -0.3091
    3TYR    SC3  120   1.090   2.417   3.456  0.0248  0.2445 -0.2095
    1TYR     BB  121   2.380   4.413   3.618  0.0404  0.0948  0.3133
    1TYR    SC1  122   2.609   4.572   3.764  0.2572 -0.3334  0.5035
    1TYR    SC2  123   2.680   4.832   3.754  0.2066 -0.3173 -0.3073
    1TYR    SC3  124   2.845   4.651   3.868  0.3082  0.0351  0.1422
    2LEU     BB  125   2.407   4.355   3.195 -0.2410  0.3168 -0.1666
    2LEU    SC1  126   2.334   4.008   3.196  0.0893  0.0118 -0.0814
    3TYR     BB  127   2.714   4.310   3.033 -0.1940  0.3298 -0.0687
    3TYR    SC1  128   2.838   4.268   3.337  0.0298  0.0076  0.1037
    3TYR    SC2  129   2.933   4.500   3.438  0.1841  0.0887 -0.2121
    3TYR    SC3  130   2.891   4.289   3.601  0.1830  0.2898  0.0557
    1TYR     BB  131   2.747   4.270   2.084 -0.3516 -0.0448  0.0842
    1TYR    SC1  132   2.850   4.233   2.354  0.0368  0.2374 -0.2356
    1TYR    SC2  133   2.929   4.143   2.596 -0.1409  0.1029 -0.2249
    1TYR    SC3  134   3.077   4.089   2.377 -0.1036  0.0186 -0.1794
    2LEU     BB  135   2.784   4.050   1.837  0.0248  0.1441 -0.3749
    2LEU    SC1  136   2.655   4.146   1.598  0.3788 -0.1732  0.0472
    3TYR     BB  137   2.972   3.810   1.852 -0.0797  0.3030  0.0842
    3TYR    SC1  138   2.903   3.501   1.861  0.2467  0.0467 -0.1089
    3TYR    SC2  139   2.846   3.333   2.064  0.1828  0.1643 -0.0282
    3TYR    SC3  140   2.836   3.245   1.809 -0.0675  0.1010 -0.0006
    1TYR     BB  141   2.481   1.571   1.912 -0.0649 -0.1011 -0.1367
    1TYR    SC1  142   2.741   1.489   1.890 -0.0042 -0.0075  0.3754
    1TYR    SC2  143   2.979   1.612   1.927  0.0786  0.1500 -0.4420
    1TYR    SC3  144   2.949   1.431   1.729 -0.3441 -0.3426  0.0300
    2LEU     BB  145   2.380   1.760   2.201 -0.0572  0.1279 -0.2608
    2LEU    SC1  146   2.239   1.533   2.368  0.0066 -0.2242  0.3238
    3TYR     BB  147   2.537   1.891   2.295  0.1002  0.0951  0.1381
    3TYR    SC1  148   2.822   1.871   2.324  0.0628  0.3413  0.0916
    3TYR    SC2  149   3.005   2.017   2.458  0.1774 -0.0021  0.3269
    3TYR    SC3  150   3.082   1.797   2.321 -0.0213  0.0234  0.1692
    1TYR     BB  151   2.610   2.071   1.858  0.1463  0.2982 -0.2386
    1TYR    SC1  152   2.915   2.103   1.950  0.2297 -0.1853  0.1706
    1TYR    SC2  153   3.172   2.021   1.931  0.2372 -0.0844 -0.3169
    1TYR    SC3  154   3.115   2.264   2.034  0.3302 -0.1221 -0.1724
    2LEU     BB  155   2.334   2.221   1.891 -0.3645  0.1301 -0.0607
    2LEU    SC1  156   2.093   1.957   1.799 -0.0013 -0.2647  0.2675
    3TYR     BB  157   2.258   2.414   2.069  0.0523  0.1871 -0.3363
    3TYR    SC1  158   2.247   2.372   2.336  0.2337  0.2348  0.2687
    3TYR    SC2  159   2.244   2.239   2.571  0.0065  0.2177  0.2594
    3TYR    SC3  160   2.042   2.407   2.509  0.1579  0.3654  0.1550
    1TYR     BB  161   3.334   3.483   1.650  0.0059 -0.0778 -0.1290
    1TYR    SC1  162   3.237   3.641   1.459 -0.1441  0.3158 -0.1790
    1TYR    SC2  163   3.069   3.833   1.372 -0.1179  0.2645 -0.3476
    1TYR    SC3  164   3.228   3.704   1.197 -0.2488 -0.0229 -0.2631
    2LEU     BB  165   3.584   3.713   1.907  0.2012  0.1451  0.0271
    2LEU    SC1  166   3.352   3.728   2.131 -0.1788  0.1021  0.1951
    3TYR     BB  167   3.824   3.654   1.836 -0.5083 -0.0594  0.0085
    3TYR    SC1  168   3.877   3.648   1.547  0.0950  0.2428 -0.0560
    3TYR    SC2  169   3.720   3.553   1.349  0.2170  0.1385 -0.1040
    3TYR    SC3  170   3.971   3.638   1.294  0.4220 -0.3160  0.0665
    1TYR     BB  171   4.272   2.820   1.440 -0.0198  0.1783  0.1721
    1TYR    SC1  172   4.004   2.905   1.287  0.2275  0.1664  0.0895
    1TYR    SC2  173   3.899   3.153   1.265  0.2135  0.1436 -0.1234
    1TYR    SC3  174   3.835   2.962   1.085  0.4324  0.0608 -0.1182
    2LEU     BB  175   4.236   2.579   1.609 -0.2196 -0.2335  0.0191
    2LEU    SC1  176   3.898   2.523   1.662 -0.0900 -0.0608  0.0525
    3TYR     BB  177   4.375   2.425   1.794 -0.2395 -0.1770 -0.2130
    3TYR    SC1  178   4.332   2.142   1.914  0.2854 -0.1538  0.4054
    3TYR    SC2  179   4.283   1.930   2.073  0.2391 -0.2900  0.2147
    3TYR    SC3  180   4.153   1.955   1.838  0.1846 -0.0063  0.2704
    1TYR     BB  181   0.708   4.046   4.852 -0.1142  0.1574  0.3049
    1TYR    SC1  182   0.823   4.053   5.146  0.3573  0.0365 -0.0116
    1TYR    SC2  183   0.766   4.003   5.405 -0.0982 -0.0222 -0.1119
    1TYR    SC3  184   0.971   3.876   5.284 -0.0252 -0.1678  0.1562
    2LEU     BB  185   0.950   4.130   4.676 -0.0891  0.0501 -0.1324
    2LEU    SC1  186   0.874   4.132   4.325  0.3526 -0.2410  0.0746
    3TYR     BB  187   1.219   4.186   4.860 -0.1225  0.1030  0.0039
    3TYR    SC1  188   1.370   4.412   5.007 -0.1613 -0.3059  0.2703
    3TYR    SC2  189   1.509   4.492   5.224 -0.1721  0.3131  0.0742
    3TYR    SC3  190   1.460   4.666   5.024 -0.2369 -0.2113 -0.3981
    1TYR     BB  191   3.060   3.743   4.356  0.0297 -0.2444  0.1544
    1TYR    SC1  192   3.011   3.422   4.443 -0.0870 -0.2915  0.0219
    1TYR    SC2  193   3.149   3.228   4.571  0.0065 -0.3027 -0.0942
    1TYR    SC3  194   2.910   3.172   4.457 -0.0825 -0.2902  0.0818
    2LEU     BB  195   3.222   3.889   4.555  0.3076 -0.1886 -0.0343
    2LEU    SC1  196   3.329   3.708   4.780  0.0289 -0.0501 -0.2925
    3TYR     BB  197   3.343   4.167   4.535 -0.0455  0.1261 -0.0071
    3TYR    SC1  198   3.591   4.179   4.687  0.0961 -0.1835  0.1158
    3TYR    SC2  199   3.739   4.081   4.891 -0.0338 -0.0181  0.2942
    3TYR    SC3  200   3.823   4.299   4.756  0.1388 -0.2276  0.0505
    1TYR     BB  201   2.845   2.314   1.388 -0.1828 -0.0653 -0.0982
    1TYR    SC1  202   2.509   2.327   1.356 -0.0773 -0.1105 -0.0384
    1TYR    SC2  203   2.303   2.153   1.375 -0.0382 -0.1614 -0.0744
    1TYR    SC3  204   2.326   2.312   1.158  0.0949 -0.3308 -0.1873
    2LEU     BB  205   2.881   2.568   1.502 -0.1361  0.0045 -0.1044
    2LEU    SC1  206   2.833   2.609   1.836 -0.0017  0.0516  0.0881
    3TYR     BB  207   2.816   2.870   1.440  0.6487 -0.1356  0.0111
    3TYR    SC1  208   2.763   3.026   1.204  0.2176 -0.4130 -0.1779
    3TYR    SC2  209   2.566   3.147   1.064  0.1723 -0.4593 -0.1547
    3TYR    SC3  210   2.810   3.114   0.954  0.2562 -0.1378 -0.0781
    1TYR     BB  211   1.882   3.375   1.794 -0.0520  0.0493 -0.2590
    1TYR    SC1  212   1.635   3.526   1.671 -0.2070 -0.0903 -0.1988
    1TYR    SC2  213   1.440   3.707   1.720 -0.2794 -0.1866 -0.1270
    1TYR    SC3  214   1.550   3.690   1.474 -0.0982  0.1217 -0.0728
    2LEU     BB  215   2.075   3.678   1.643 -0.0685 -0.3475  0.1292
    2LEU    SC1  216   2.394   3.715   1.785 -0.1006 -0.0500  0.3459
    3TYR     BB  217   2.043   3.754   1.355  0.0410  0.0919 -0.2136
    3TYR    SC1  218   2.181   4.010   1.219  0.1953 -0.1666  0.2295
    3TYR    SC2  219   2.299   4.253   1.226  0.1641 -0.1417 -0.0018
    3TYR    SC3  220   2.400   4.058   1.068 -0.0276 -0.1598 -0.1054
    1TYR     BB  221   2.620   1.597   4.631  0.1421  0.1097 -0.0318
    1TYR    SC1  222   2.425   1.353   4.626 -0.1417  0.1291  0.1205
    1TYR    SC2  223   2.257   1.289   4.425  0.0388 -0.3000  0.0915
    1TYR    SC3  224   2.195   1.222   4.679  0.0779 -0.2845  0.1052
    2LEU     BB  225   2.585   1.712   4.303  0.2796  0.1092  0.1782
    2LEU    SC1  226   2.718   2.004   4.224  0.2514  0.0246 -0.0214
    3TYR     BB  227   2.563   1.467   3.969 -0.0528 -0.0110 -0.0379
    3TYR    SC1  228   2.404   1.670   3.809 -0.3660 -0.0907  0.1326
    3TYR    SC2  229   2.474   1.909   3.705 -0.0448 -0.2496 -0.0344
    3TYR    SC3  230   2.214   1.852   3.751 -0.1241  0.1375  0.0336
    1TYR     BB  231   3.428   4.679   1.918  0.2357 -0.1795 -0.0975
    1TYR    SC1  232   3.537   4.549   1.599 -0.0996  0.0253  0.1916
    1TYR    SC2  233   3.661   4.550   1.360 -0.1174  0.1708  0.1818
    1TYR    SC3  234   3.391   4.550   1.372 -0.1229 -0.2193  0.2028
    2LEU     BB  235   3.318   4.503   2.054  0.1096 -0.1243  0.1852
    2LEU    SC1  236   3.140   4.615   2.289 -0.0970 -0.2722 -0.1642
    3TYR     BB  237   3.350   4.210   2.015 -0.0195 -0.2701  0.0454
    3TYR    SC1  238   3.332   4.091   1.730  0.1899 -0.0793 -0.1486
    3TYR    SC2  239   3.171   4.226   1.561 -0.0077 -0.2778 -0.1243
    3TYR    SC3  240   3.394   4.107   1.468 -0.0461 -0.2753 -0.2213
    1TYR     BB  241   1.873   4.043   5.590  0.0929  0.2160 -0.1228
    1TYR    SC1  242   1.640   3.922   5.459  0.0521 -0.3256 -0.0906
    1TYR    SC2  243   1.493   3.926   5.232 -0.2266  0.2491  0.0761
    1TYR    SC3  244   1.393   3.813   5.456 -0.0357 -0.1348 -0.0221
    2LEU     BB  245   1.878   4.358   5.744  0.1598  0.0048  0.1151
    2LEU    SC1  246   1.893   4.599   5.514 -0.1912  0.1086 -0.1166
    3TYR     BB  247   1.517   4.491   5.808  0.2197  0.0645  0.0159
    3TYR    SC1  248   1.320   4.288   5.655  0.1706 -0.1747 -0.1134
    3TYR    SC2  249   1.119   4.109   5.642 -0.0531  0.0301  0.2969
    3TYR    SC3  250   1.174   4.265   5.429 -0.3395 -0.0194  0.1803
    1TYR     BB  251   2.522   1.647   3.135  0.3137 -0.4379  0.0693
    1TYR    SC1  252   2.677   1.851   3.271  0.2609 -0.1662  0.0754
    1TYR    SC2  253   2.813   1.973   3.470  0.2390 -0.0454  0.0170
    1TYR    SC3  254   2.613   2.103   3.343  0.1711 -0.1665 -0.0014
    2LEU     BB  255   2.397   1.851   2.807 -0.2112  0.0314 -0.3024
    2LEU    SC1  256   2.058   1.858   2.761 -0.3203  0.0270 -0.2773
    3TYR     BB  257   2.653   2.067   2.816 -0.0616 -0.2274  0.1554
    3TYR    SC1  258   2.661   2.297   2.571  0.1299 -0.0076  0.0318
    3TYR    SC2  259   2.761   2.536   2.496  0.2327 -0.1136 -0.1826
    3TYR    SC3  260   2.706   2.349   2.310 -0.3438 -0.0757 -0.0754
    1TYR     BB  261   3.746   5.431   3.632  0.2106 -0.2248 -0.3932
    1TYR    SC1  262   3.684   5.705   3.631 -0.4125  0.0013 -0.2262
    1TYR    SC2  263   3.573   5.947   3.587 -0.2323  0.1545  0.1112
    1TYR    SC3  264   3.824   5.930   3.684 -0.1786 -0.1749 -0.0678
    2LEU     BB  265   3.768   5.306   3.923  0.1791 -0.0092  0.0175
    2LEU    SC1  266   3.689   5.021   3.950  0.0189  0.0650 -0.2191
    3TYR     BB  267   3.945   5.402   4.291 -0.0868 -0.0827  0.3104
    3TYR    SC1  268   3.847   5.150   4.411 -0.0056 -0.0956 -0.0268
    3TYR    SC2  269   3.616   5.026   4.474 -0.0005 -0.0272  0.1313
    3TYR    SC3  270   3.829   4.881   4.394  0.0107 -0.1256  0.3291
    1TYR     BB  271   1.577   2.290   2.570 -0.1076  0.3447  0.0076
    1TYR    SC1  272   1.760   2.062   2.451 -0.0670  0.1005 -0.3606
    1TYR    SC2  273   1.760   1.816   2.340 -0.5318 -0.1473  0.1284
    1TYR    SC3  274   1.957   1.991   2.280 -0.0077 -0.7354 -0.0065
    2LEU     BB  275   1.606   2.521   2.274  0.1266  0.0069  0.0196
    2LEU    SC1  276   1.390   2.780   2.373  0.0566 -0.1837 -0.4483
    3TYR     BB  277   1.726   2.437   2.072  0.1338 -0.1224 -0.2051
    3TYR    SC1  278   1.618   2.162   1.991  0.0427  0.0346  0.2565
    3TYR    SC2  279   1.540   1.905   1.964 -0.2232  0.1511 -0.2523
    3TYR    SC3  280   1.413   2.066   2.139 -0.0804 -0.0427  0.0416
    1TYR     BB  281   4.144   2.498   2.679  0.1113  0.1247 -0.1622
    1TYR    SC1  282   4.125   2.494   2.389  0.0601 -0.0520 -0.0294
    1TYR    SC2  283   4.080   2.610   2.149 -0.1630 -0.1690 -0.0472
    1TYR    SC3  284   4.050   2.343   2.178 -0.1941 -0.1484  0.1242
    2LEU     BB  285   4.385   2.740   2.721 -0.1097 -0.0567 -0.0649
    2LEU    SC1  286   4.434   2.865   2.420 -0.1956 -0.3972  0.1593
    3TYR     BB  287   4.461   2.725   2.992  0.1190  0.4131 -0.0716
    3TYR    SC1  288   4.770   2.843   3.119 -0.0607 -0.2065  0.0185
    3TYR    SC2  289   4.986   2.821   3.281  0.1078  0.0845 -0.1559
    3TYR    SC3  290   5.018   2.825   3.012 -0.0955  0.3030 -0.1807
    1TYR     BB  291   3.610   3.745   4.313 -0.2113 -0.0680 -0.1512
    1TYR    SC1  292   3.493   3.445   4.353 -0.0785 -0.1374 -0.0223
    1TYR    SC2  293   3.343   3.299   4.183 -0.2245 -0.1195  0.0889
    1TYR    SC3  294   3.559   3.188   4.301 -0.0903 -0.1158 -0.1462
    2LEU     BB  295   3.883   3.752   4.467 -0.0052  0.1953  0.5090
    2LEU    SC1  296   3.798   3.597   4.719  0.0256 -0.0146 -0.0324
    3TYR     BB  297   4.104   3.976   4.508  0.1189 -0.1938  0.0515
    3TYR    SC1  298   4.374   3.924   4.396 -0.0141  0.2597  0.2060
    3TYR    SC2  299   4.575   4.004   4.235  0.0993  0.0689  0.2488
    3TYR    SC3  300   4.627   3.847   4.448 -0.1486 -0.4620 -0.0559
    1TYR     BB  301   3.749   2.726   2.965 -0.2709 -0.1700 -0.0522
    1TYR    SC1  302   3.501   2.825   3.112 -0.0819  0.0652 -0.0677
    1TYR    SC2  303   3.237   2.788   3.155 -0.0111 -0.1465  0.2251
    1TYR    SC3  304   3.358   3.012   3.245 -0.0908 -0.0408  0.0748
    2LEU     BB  305   3.916   2.933   2.847 -0.2424  0.2252  0.1285
    2LEU    SC1  306   4.129   3.034   3.081 -0.1862  0.2275 -0.1323
    3TYR     BB  307   3.975   2.952   2.515 -0.0993 -0.2453 -0.1327
    3TYR    SC1  308   3.757   2.855   2.341 -0.0183  0.1044 -0.2116
    3TYR    SC2  309   3.650   2.758   2.113 -0.0451 -0.3455 -0.0207
    3TYR    SC3  310   3.622   2.622   2.344 -0.1886  0.1945  0.3037
    1TYR     BB  311   2.725   2.904   5.315  0.1448  0.0651 -0.3849
    1TYR    SC1  312   2.895   2.935   5.529  0.1614 -0.2696 -0.2122
    1TYR    SC2  313   3.096   2.939   5.709  0.0522  0.1467 -0.0857
    1TYR    SC3  314   2.850   2.854   5.783  0.0338  0.2156 -0.0668
    2LEU     BB  315   2.641   2.651   5.255 -0.0852 -0.0427 -0.2537
    2LEU    SC1  316   2.388   2.557   5.086 -0.0866  0.0745  0.1122
    3TYR     BB  317   2.633   2.444   5.518  0.0022 -0.0273 -0.2407
    3TYR    SC1  318   2.368   2.293   5.569 -0.0231 -0.1463  0.1118
    3TYR    SC2  319   2.170   2.231   5.742 -0.2449 -0.0273 -0.0911
    3TYR    SC3  320   2.113   2.272   5.481  0.0888 -0.2526 -0.2082
    1TYR     BB  321   3.032   2.342   5.114  0.3911 -0.3927  0.1987
    1TYR    SC1  322   3.296   2.179   5.087  0.0695  0.1869  0.0394
    1TYR    SC2  323   3.441   2.128   5.309  0.0875  0.3669  0.0703
    1TYR    SC3  324   3.414   1.938   5.119  0.1667  0.2510  0.1732
    2LEU     BB  325   3.165   2.660   5.128  0.0183 -0.1466 -0.1658
    2LEU    SC1  326   3.389   2.686   5.366 -0.2287 -0.1163 -0.0195
    3TYR     BB  327   3.182   3.010   5.124 -0.0356 -0.0017 -0.0111
    3TYR    SC1  328   2.956   3.149   4.952  0.2780 -0.0262 -0.2086
    3TYR    SC2  329   2.736   3.262   4.844  0.1541 -0.1620 -0.1028
    3TYR    SC3  330   2.936   3.418   4.937  0.1001 -0.0374 -0.1923
    1TYR     BB  331   2.870   1.616   2.788 -0.3242 -0.3131 -0.2262
    1TYR    SC1  332   2.676   1.488   2.600 -0.0069  0.1097 -0.0497
    1TYR    SC2  333   2.583   1.237   2.562  0.0504  0.0801  0.0036
    1TYR    SC3  334   2.691   1.373   2.356 -0.3915  0.2337 -0.1406
    2LEU     BB  335   3.165   1.491   2.736 -0.0476  0.2530 -0.1901
    2LEU    SC1  336   3.147   1.203   2.598  0.0620 -0.1110 -0.1169
    3TYR     BB  337   3.485   1.418   2.937  0.3563 -0.0586  0.3104
    3TYR    SC1  338   3.662   1.301   2.724 -0.1399 -0.3710  0.1789
    3TYR    SC2  339   3.758   1.050   2.695 -0.2236 -0.3541 -0.3719
    3TYR    SC3  340   3.706   1.201   2.477 -0.2839  0.1077 -0.0555
    1TYR     BB  341   2.638   3.635   4.126  0.2849 -0.0579  0.0077
    1TYR    SC1  342   2.291   3.611   4.203 -0.1371  0.0493 -0.2716
    1TYR    SC2  343   2.040   3.577   4.109 -0.1538 -0.2180 -0.1438
    1TYR    SC3  344   2.085   3.582   4.375 -0.0115 -0.2783 -0.1656
    2LEU     BB  345   2.797   3.527   3.946  0.0605 -0.0875  0.0910
    2LEU    SC1  346   3.068   3.710   3.863 -0.1087  0.1686 -0.1319
    3TYR     BB  347   2.900   3.300   3.909  0.1461  0.3179  0.0217
    3TYR    SC1  348   2.927   3.170   3.624  0.1123 -0.0045  0.3946
    3TYR    SC2  349   2.920   3.134   3.356 -0.1206  0.4128  0.3318
    3TYR    SC3  350   2.989   2.929   3.519 -0.0166  0.1385 -0.0387
    1TYR     BB  351   2.154   3.604   2.250 -0.0501  0.1555  0.0687
    1TYR    SC1  352   1.903   3.749   2.131  0.0888 -0.0127 -0.0794
    1TYR    SC2  353   1.827   3.943   1.959  0.1392 -0.0844 -0.1837
    1TYR    SC3  354   1.641   3.805   2.098  0.1114  0.4578  0.3725
    2LEU     BB  355   2.125   3.775   2.580  0.0728  0.0814  0.0943
    2LEU    SC1  356   2.234   3.609   2.853 -0.0651  0.0391  0.1030
    3TYR     BB  357   1.942   3.975   2.590  0.0454  0.0877  0.2536
    3TYR    SC1  358   1.845   4.192   2.366 -0.2746 -0.0342  0.1506
    3TYR    SC2  359   1.786   4.455   2.383 -0.2475 -0.0211  0.0512
    3TYR    SC3  360   1.807   4.337   2.141  0.2150 -0.0048  0.0729
    1TYR     BB  361   4.261   3.323   1.744 -0.1778 -0.3903  0.0587
    1TYR    SC1  362   3.973   3.163   1.721 -0.1437  0.3255  0.2774
    1TYR    SC2  363   3.816   2.948   1.771  0.1913  0.0101  0.0397
    1TYR    SC3  364   3.705   3.182   1.695 -0.1787 -0.0912  0.2426
    2LEU     BB  365   4.472   3.424   1.538 -0.2490 -0.3063 -0.1484
    2LEU    SC1  366   4.457   3.243   1.260 -0.0809 -0.0318 -0.1009
    3TYR     BB  367   4.716   3.222   1.675 -0.1928 -0.3657  0.1420
    3TYR    SC1  368   4.744   2.974   1.545 -0.1228 -0.1057  0.1623
    3TYR    SC2  369   4.811   2.720   1.602  0.1730 -0.1284 -0.2317
    3TYR    SC3  370   4.854   2.818   1.354 -0.3082  0.1891 -0.2049
    1TYR     BB  371   4.749   4.566   2.325  0.2186 -0.0131  0.1214
    1TYR    SC1  372   4.492   4.687   2.192 -0.0698  0.1492 -0.0974
    1TYR    SC2  373   4.245   4.795   2.201 -0.0339  0.2278 -0.0317
    1TYR    SC3  374   4.368   4.760   1.964 -0.0474  0.3291 -0.0541
    2LEU     BB  375   4.845   4.367   2.520  0.0196 -0.0131  0.0745
    2LEU    SC1  376   5.154   4.352   2.513  0.0664  0.1952 -0.0217
    3TYR     BB  377   4.643   4.207   2.670  0.1023  0.4501  0.0346
    3TYR    SC1  378   4.581   3.931   2.801  0.0265  0.3076  0.0815
    3TYR    SC2  379   4.403   3.740   2.872 -0.0621  0.3318 -0.0704
    3TYR    SC3  380   4.656   3.731   2.967 -0.1191  0.2481  0.0777
    1TYR     BB  381   3.347   2.210   4.602  0.0444  0.1735 -0.1356
    1TYR    SC1  382   3.563   2.091   4.738  0.1084 -0.1584  0.0051
    1TYR    SC2  383   3.773   1.942   4.657  0.1271 -0.1952  0.1198
    1TYR    SC3  384   3.798   2.105   4.871 -0.0027 -0.3097  0.2242
    2LEU     BB  385   3.345   2.558   4.694 -0.5157  0.1758 -0.1779
    2LEU    SC1  386   3.605   2.561   4.864  0.0626  0.0289 -0.0846
    3TYR     BB  387   3.240   2.802   4.618 -0.0635  0.1434  0.0524
    3TYR    SC1  388   2.906   2.782   4.659 -0.0705 -0.0821  0.2288
    3TYR    SC2  389   2.644   2.827   4.702 -0.0271  0.0384  0.3768
    3TYR    SC3  390   2.747   2.581   4.744 -0.2082 -0.1438 -0.1504
    1TYR     BB  391   1.433   4.529   2.674 -0.0985 -0.0629 -0.3653
    1TYR    SC1  392   1.430   4.249   2.508  0.2278  0.1081 -0.0820
    1TYR    SC2  393   1.432   3.983   2.459 -0.0728  0.0560  0.1531
    1TYR    SC3  394   1.358   4.157   2.265 -0.2362 -0.0627  0.1061
    2LEU     BB  395   1.564   4.440   2.963  0.3680 -0.2226 -0.0214
    2LEU    SC1  396   1.847   4.361   2.895 -0.3298  0.1295 -0.0335
    3TYR     BB  397   1.519   4.461   3.233 -0.2947 -0.0478  0.1730
    3TYR    SC1  398   1.730   4.395   3.448 -0.0501  0.1496 -0.0340
    3TYR    SC2  399   1.896   4.386   3.660 -0.4375 -0.1375  0.2780
    3TYR    SC3  400   1.951   4.240   3.440 -0.0331  0.1597  0.1660
    1TYR     BB  401   2.039   3.136   5.827 -0.3914 -0.1394  0.0522
    1TYR    SC1  402   1.990   2.964   6.064  0.2146  0.1750  0.0050
    1TYR    SC2  403   1.863   3.000   6.299  0.3329  0.1524  0.0735
    1TYR    SC3  404   2.007   2.776   6.257  0.2381  0.1144 -0.0556
    2LEU     BB  405   2.235   3.366   5.753 -0.2269  0.2203 -0.1194
    2LEU    SC1  406   2.551   3.243   5.745 -0.2431 -0.1489 -0.3041
    3TYR     BB  407   2.213   3.694   5.616  0.4208 -0.1034  0.1739
    3TYR    SC1  408   2.210   3.881   5.886  0.2346  0.0273  0.4969
    3TYR    SC2  409   2.024   3.934   6.073  0.0629  0.0862  0.3137
    3TYR    SC3  410   2.237   4.098   6.044 -0.0858  0.2707  0.2348
    1TYR     BB  411   3.354   3.241   2.072 -0.0474  0.0768  0.2282
    1TYR    SC1  412   3.623   3.283   2.181 -0.0340 -0.0328 -0.2051
    1TYR    SC2  413   3.778   3.463   2.308 -0.0769 -0.2802  0.2228
    1TYR    SC3  414   3.890   3.284   2.140 -0.0126  0.0226 -0.0698
    2LEU     BB  415   3.283   3.037   2.375  0.1443  0.0035 -0.2664
    2LEU    SC1  416   3.087   2.789   2.265  0.0791 -0.3384  0.0306
    3TYR     BB  417   3.449   3.026   2.659 -0.0082  0.0236 -0.0772
    3TYR    SC1  418   3.564   3.203   2.809 -0.0743 -0.2383 -0.0167
    3TYR    SC2  419   3.689   3.314   3.022  0.3071 -0.2506 -0.2232
    3TYR    SC3  420   3.703   3.433   2.780 -0.1061 -0.2464 -0.2541
    1TYR     BB  421   2.018   4.676   3.231  0.1145  0.0525 -0.1024
    1TYR    SC1  422   1.823   4.908   3.342  0.1811 -0.1663  0.0044
    1TYR    SC2  423   1.628   5.090   3.304  0.0787 -0.1984  0.3343
    1TYR    SC3  424   1.812   5.128   3.498  0.2512 -0.2929  0.1932
    2LEU     BB  425   2.292   4.841   3.403  0.3893 -0.0213  0.0543
    2LEU    SC1  426   2.564   4.791   3.229  0.0456 -0.1663  0.0205
    3TYR     BB  427   2.291   5.168   3.530 -0.0919  0.0282 -0.2364
    3TYR    SC1  428   2.232   5.308   3.323  0.1201 -0.2683  0.0692
    3TYR    SC2  429   2.039   5.285   3.135  0.2835 -0.5316 -0.0743
    3TYR    SC3  430   2.234   5.470   3.107 -0.2327  0.1361  0.3487
    1TYR     BB  431   4.571   3.025   4.841 -0.2008 -0.0456  0.3412
    1TYR    SC1  432   4.378   3.162   5.020 -0.2140 -0.0002  0.0371
    1TYR    SC2  433   4.144   3.296   5.038 -0.1287  0.1561  0.0096
    1TYR    SC3  434   4.248   3.175   5.256 -0.2636  0.0337  0.0082
    2LEU     BB  435   4.747   3.188   4.650 -0.3710 -0.0135  0.1218
    2LEU    SC1  436   4.749   3.011   4.329 -0.1230  0.1280  0.3202
    3TYR     BB  437   4.898   3.447   4.718 -0.2407  0.1528  0.2782
    3TYR    SC1  438   4.745   3.618   4.902  0.1139 -0.2182 -0.1933
    3TYR    SC2  439   4.541   3.642   5.077  0.2229 -0.0935 -0.0802
    3TYR    SC3  440   4.760   3.798   5.103  0.3484 -0.2491 -0.1793
    1TYR     BB  441   2.607   2.844   2.171  0.3211 -0.0685  0.0008
    1TYR    SC1  442   2.620   3.109   2.356 -0.4760 -0.2487  0.0187
    1TYR    SC2  443   2.620   3.365   2.442 -0.2246 -0.1084 -0.3626
    1TYR    SC3  444   2.406   3.207   2.489 -0.3840  0.1659 -0.1183
    2LEU     BB  445   2.447   2.955   1.850  0.0681  0.1887 -0.1715
    2LEU    SC1  446   2.360   3.229   1.960  0.1557 -0.0982  0.1931
    3TYR     BB  447   2.378   2.721   1.622  0.1314 -0.1174 -0.1297
    3TYR    SC1  448   2.159   2.551   1.567  0.1826 -0.1941 -0.1588
    3TYR    SC2  449   1.930   2.646   1.674  0.2893  0.2103 -0.2667
    3TYR    SC3  450   1.954   2.383   1.618 -0.0790  0.1315 -0.0934
    1TYR     BB  451   3.411   2.586   3.665 -0.0490 -0.1659 -0.0474
    1TYR    SC1  452   3.440   2.905   3.717 -0.0789  0.2178  0.1925
    1TYR    SC2  453   3.580   3.085   3.862  0.0477  0.2577  0.0245
    1TYR    SC3  454   3.355   3.161   3.735 -0.0258  0.2392  0.1414
    2LEU     BB  455   3.166   2.499   3.775 -0.2272 -0.3010  0.0456
    2LEU    SC1  456   2.987   2.447   3.457  0.3030  0.0078 -0.0734
    3TYR     BB  457   3.129   2.251   3.963  0.1295  0.1348  0.1430
    3TYR    SC1  458   3.264   2.060   4.129 -0.0381  0.0301  0.0786
    3TYR    SC2  459   3.518   1.982   4.176 -0.0111  0.1144  0.0743
    3TYR    SC3  460   3.312   1.826   4.254  0.0399  0.0989  0.1799
    1TYR     BB  461   1.606   1.934   4.831 -0.1649  0.2036 -0.0588
    1TYR    SC1  462   1.909   1.809   4.772  0.0506  0.2859 -0.0119
    1TYR    SC2  463   2.046   1.584   4.834 -0.3003  0.1723  0.4097
    1TYR    SC3  464   2.173   1.792   4.718  0.0588 -0.1899  0.1210
    2LEU     BB  465   1.674   2.228   4.906 -0.2726 -0.1634  0.1248
    2LEU    SC1  466   1.980   2.281   4.963 -0.0296 -0.2566  0.1204
    3TYR     BB  467   1.597   2.621   4.841  0.2759  0.0186 -0.1872
    3TYR    SC1  468   1.699   2.743   5.080  0.0360 -0.0809 -0.2116
    3TYR    SC2  469   1.938   2.796   5.194 -0.0660 -0.2174  0.0778
    3TYR    SC3  470   1.720   2.940   5.263 -0.0976 -0.1881 -0.0776
    1TYR     BB  471   1.926   3.830   3.103  0.1449 -0.1161 -0.2282
    1TYR    SC1  472   1.894   3.528   3.223 -0.2125 -0.0725  0.1160
    1TYR    SC2  473   1.964   3.271   3.181  0.1773  0.0496 -0.0422
    1TYR    SC3  474   1.865   3.347   3.420  0.0596 -0.2428  0.0071
    2LEU     BB  475   1.670   3.954   3.165 -0.0051  0.1536 -0.2763
    2LEU    SC1  476   1.539   3.973   3.476 -0.1461  0.0389 -0.1145
    3TYR     BB  477   1.360   3.991   2.971 -0.1529  0.2806 -0.2289
    3TYR    SC1  478   1.150   3.833   3.086  0.1745  0.3146  0.1582
    3TYR    SC2  479   1.078   3.830   3.346  0.1522  0.0917  0.1512
    3TYR    SC3  480   0.942   3.681   3.165 -0.0732  0.5289 -0.0579
    1TYR     BB  481   4.011   1.816   3.944 -0.1138 -0.0641  0.1937
    1TYR    SC1  482   3.895   1.732   4.228  0.0869  0.1728  0.1687
    1TYR    SC2  483   3.734   1.595   4.396 -0.0239  0.1922  0.0799
    1TYR    SC3  484   4.002   1.565   4.411 -0.0479 -0.0923  0.0134
    2LEU     BB  485   3.866   2.055   3.776 -0.2547  0.0299 -0.0161
    2LEU    SC1  486   3.912   2.023   3.451 -0.1409  0.0434  0.0619
    3TYR     BB  487   3.727   2.279   3.872  0.0966 -0.1276  0.0552
    3TYR    SC1  488   3.830   2.346   4.172  0.4674 -0.0067 -0.1351
    3TYR    SC2  489   3.977   2.542   4.283 -0.0685  0.3066  0.0666
    3TYR    SC3  490   3.823   2.384   4.439 -0.1907  0.1982 -0.1589
    1TYR     BB  491   1.840   4.413   4.158  0.0793  0.2380 -0.1222
    1TYR    SC1  492   1.916   4.691   4.032  0.2086  0.0608  0.0156
    1TYR    SC2  493   1.910   4.952   4.104  0.1108  0.1008 -0.1322
    1TYR    SC3  494   2.063   4.872   3.896  0.1468  0.0380 -0.0823
    2LEU     BB  495   1.551   4.228   4.043 -0.0196 -0.2604 -0.2025
    2LEU    SC1  496   1.666   3.928   4.018 -0.1266 -0.4718  0.0490
    3TYR     BB  497   1.231   4.192   4.043 -0.0717  0.2002  0.5342
    3TYR    SC1  498   1.159   3.921   3.954  0.2111  0.0039 -0.4161
    3TYR    SC2  499   1.257   3.684   4.040 -0.1773 -0.0593 -0.1110
    3TYR    SC3  500   1.191   3.717   3.780  0.1722 -0.1740 -0.2209
    1TYR     BB  501   2.572   3.685   6.212  0.1256 -0.0528  0.2896
    1TYR    SC1  502   2.260   3.548   6.249 -0.0124  0.1812 -0.0015
    1TYR    SC2  503   1.994   3.518   6.213  0.0115  0.0646 -0.0885
    1TYR    SC3  504   2.136   3.325   6.337  0.0568  0.1242 -0.0468
    2LEU     BB  505   2.682   3.927   6.199  0.2096 -0.0674  0.0085
    2LEU    SC1  506   3.018   3.861   6.200 -0.0273  0.0842 -0.0978
    3TYR     BB  507   2.638   4.173   6.330 -0.0242 -0.3081  0.3214
    3TYR    SC1  508   2.655   4.252   6.609  0.0239 -0.1148  0.1006
    3TYR    SC2  509   2.688   4.429   6.810  0.0547 -0.0448  0.0342
    3TYR    SC3  510   2.619   4.174   6.865 -0.0724  0.0085  0.1254
    1TYR     BB  511   1.913   2.662   5.673  0.4199  0.0010  0.0250
    1TYR    SC1  512   1.690   2.491   5.484 -0.0234 -0.1391  0.0682
    1TYR    SC2  513   1.631   2.257   5.363  0.2047 -0.1496 -0.0290
    1TYR    SC3  514   1.457   2.463   5.350  0.1103 -0.2352 -0.1503
    2LEU     BB  515   2.233   2.727   5.685 -0.0439  0.0028 -0.1847
    2LEU    SC1  516   2.290   2.972   5.467  0.2655 -0.0263  0.0207
    3TYR     BB  517   2.382   2.640   5.995  0.3067  0.2981 -0.1505
    3TYR    SC1  518   2.528   2.877   6.153 -0.4755  0.0133  0.0797
    3TYR    SC2  519   2.750   2.969   6.275 -0.0819 -0.3053 -0.3498
    3TYR    SC3  520   2.547   3.138   6.221  0.0579  0.0033  0.0248
    1TYR     BB  521   2.869   2.449   3.020 -0.3036  0.2542  0.4784
    1TYR    SC1  522   3.067   2.392   2.790  0.0128 -0.5723  0.1151
    1TYR    SC2  523   3.167   2.391   2.540 -0.0616 -0.1153  0.0730
    1TYR    SC3  524   3.310   2.499   2.742 -0.2229  0.0091  0.1225
    2LEU     BB  525   2.790   2.776   3.010  0.1446  0.1365  0.0712
    2LEU    SC1  526   2.940   2.891   2.772  0.2280 -0.3530 -0.0980
    3TYR     BB  527   2.596   2.771   3.270 -0.1933 -0.2188  0.1098
    3TYR    SC1  528   2.314   2.831   3.274 -0.2562  0.2159 -0.1762
    3TYR    SC2  529   2.060   2.747   3.234 -0.2075  0.0841 -0.2132
    3TYR    SC3  530   2.124   2.879   3.460 -0.3515  0.2948 -0.2914
    1TYR     BB  531   1.662   2.596   3.868 -0.1793  0.3350  0.2487
    1TYR    SC1  532   1.392   2.726   3.904 -0.0758 -0.5004  0.1552
    1TYR    SC2  533   1.217   2.781   4.102 -0.2553  0.1842 -0.1565
    1TYR    SC3  534   1.126   2.703   3.860 -0.0954  0.1236 -0.1984
    2LEU     BB  535   1.895   2.746   3.865 -0.0512 -0.3027 -0.2067
    2LEU    SC1  536   1.783   3.028   4.068 -0.3755 -0.0525 -0.1045
    3TYR     BB  537   2.111   2.695   4.000 -0.3893  0.1974  0.1884
    3TYR    SC1  538   2.081   2.386   4.073  0.2152  0.0600 -0.0808
    3TYR    SC2  539   2.204   2.147   4.090 -0.1400 -0.1218  0.0791
    3TYR    SC3  540   1.949   2.161   4.003  0.0042  0.2526 -0.3290
    1TYR     BB  541   2.261   4.064   2.102 -0.0877 -0.0827 -0.0217
    1TYR    SC1  542   2.339   4.225   2.359 -0.2707 -0.5853  0.0422
    1TYR    SC2  543   2.233   4.351   2.573 -0.1815  0.2048 -0.3321
    1TYR    SC3  544   2.479   4.240   2.590 -0.2247  0.1441 -0.0041
    2LEU     BB  545   2.251   4.290   1.919 -0.2692 -0.0245  0.1408
    2LEU    SC1  546   2.134   4.204   1.648 -0.1997  0.1598  0.0124
    3TYR     BB  547   2.393   4.579   1.912  0.1213 -0.0932 -0.0722
    3TYR    SC1  548   2.238   4.744   2.146  0.1813  0.2935  0.1448
    3TYR    SC2  549   1.976   4.803   2.172  0.0361 -0.1955 -0.0740
    3TYR    SC3  550   2.142   4.833   2.382 -0.1696  0.2010  0.0445
    1TYR     BB  551   3.250   4.913   4.131 -0.1421 -0.0684 -0.0835
    1TYR    SC1  552   3.163   4.972   4.407 -0.2236 -0.0641 -0.0087
    1TYR    SC2  553   3.210   5.148   4.606  0.0034 -0.3076  0.1621
    1TYR    SC3  554   2.959   5.061   4.559 -0.1081  0.0317  0.0934
    2LEU     BB  555   3.066   5.081   3.892 -0.4456 -0.1671  0.0647
    2LEU    SC1  556   2.865   5.198   4.101 -0.0373 -0.1965 -0.0929
    3TYR     BB  557   3.225   5.243   3.717 -0.0661  0.2422  0.1492
    3TYR    SC1  558   3.263   5.544   3.683 -0.0991 -0.0802 -0.1972
    3TYR    SC2  559   3.119   5.761   3.613 -0.0092  0.0249 -0.0642
    3TYR    SC3  560   3.266   5.764   3.839 -0.2686 -0.2923  0.1193
    1TYR     BB  561   0.894   2.406   5.371  0.0368  0.0617 -0.0840
    1TYR    SC1  562   0.777   2.566   5.129  0.0584 -0.0306 -0.0811
    1TYR    SC2  563   0.528   2.632   5.047  0.0843 -0.0171 -0.1495
    1TYR    SC3  564   0.710   2.542   4.868  0.1393  0.0065 -0.1056
    2LEU     BB  565   0.879   2.570   5.645  0.2314 -0.0326 -0.0809
    2LEU    SC1  566   0.818   2.881   5.602  0.0982  0.2025  0.2374
    3TYR     BB  567   1.191   2.571   5.793 -0.0361 -0.1881  0.0421
    3TYR    SC1  568   1.405   2.795   5.789 -0.5175  0.4242 -0.1135
    3TYR    SC2  569   1.529   3.008   5.679 -0.0951  0.1838 -0.1277
    3TYR    SC3  570   1.561   2.955   5.942 -0.1872  0.1292 -0.1271
    1TYR     BB  571   1.427   4.718   4.055  0.0996 -0.0347 -0.0894
    1TYR    SC1  572   1.465   5.054   3.992 -0.0971 -0.0629 -0.2312
    1TYR    SC2  573   1.495   5.290   3.864  0.3969  0.0614  0.0794
    1TYR    SC3  574   1.418   5.286   4.123  0.1175 -0.1435 -0.0008
    2LEU     BB  575   1.338   4.553   3.741  0.2520 -0.2620  0.1854
    2LEU    SC1  576   1.347   4.809   3.588  0.0377 -0.5049  0.2647
    3TYR     BB  577   1.145   4.306   3.576 -0.2259 -0.0267  0.0553
    3TYR    SC1  578   1.063   4.273   3.254 -0.0056 -0.0149 -0.0058
    3TYR    SC2  579   1.063   4.369   3.001  0.3728 -0.2137 -0.0907
    3TYR    SC3  580   0.899   4.164   3.068  0.2031 -0.0987 -0.1451
    1TYR     BB  581   5.117   3.389   2.930  0.3597  0.0282  0.0706
    1TYR    SC1  582   4.944   3.571   2.660 -0.4094 -0.2247 -0.1446
    1TYR    SC2  583   5.015   3.522   2.404 -0.1836 -0.0840 -0.1122
    1TYR    SC3  584   4.831   3.711   2.458 -0.1304 -0.0166 -0.1645
    2LEU     BB  585   4.877   3.321   3.200  0.0430 -0.0384  0.1367
    2LEU    SC1  586   4.974   3.354   3.514 -0.2513 -0.5772  0.3546
    3TYR     BB  587   4.506   3.280   3.264 -0.2631  0.3420 -0.1081
    3TYR    SC1  588   4.502   3.260   3.571  0.4109  0.3131  0.1150
    3TYR    SC2  589   4.359   3.398   3.754  0.0945 -0.1131  0.2106
    3TYR    SC3  590   4.484   3.169   3.825  0.1081 -0.1969 -0.0691
    1TYR     BB  591   2.126   2.870   1.192 -0.1040  0.2361  0.2106
    1TYR    SC1  592   2.380   2.753   1.077  0.4466  0.4660 -0.0300
    1TYR    SC2  593   2.616   2.625   1.054  0.3301  0.2515 -0.0672
    1TYR    SC3  594   2.516   2.762   0.844  0.1222 -0.1972 -0.2780
    2LEU     BB  595   2.097   3.158   1.284  0.2381  0.1231 -0.1094
    2LEU    SC1  596   1.841   3.313   1.259 -0.0060 -0.1001  0.0722
    3TYR     BB  597   2.281   3.255   1.489  0.2088 -0.2653  0.1067
    3TYR    SC1  598   2.577   3.393   1.451 -0.0200 -0.1086 -0.1731
    3TYR    SC2  599   2.659   3.647   1.409 -0.1496  0.0652  0.4768
    3TYR    SC3  600   2.837   3.444   1.403 -0.0145  0.1857  0.1189
    1TYR     BB  601   3.553   3.843   2.548  0.0763  0.0782 -0.1549
    1TYR    SC1  602   3.507   4.153   2.599 -0.3276 -0.0347 -0.2861
    1TYR    SC2  603   3.394   4.396   2.631 -0.1172  0.0627 -0.2587
    1TYR    SC3  604   3.587   4.361   2.446  0.1230  0.0145 -0.0068
    2LEU     BB  605   3.292   3.686   2.631 -0.0130  0.5163  0.0656
    2LEU    SC1  606   3.212   3.870   2.895  0.1274  0.1115 -0.1432
    3TYR     BB  607   3.076   3.548   2.455  0.1836  0.0169 -0.1389
    3TYR    SC1  608   2.836   3.741   2.347 -0.0695  0.5249 -0.0378
    3TYR    SC2  609   2.625   3.735   2.178 -0.0769  0.0910 -0.0289
    3TYR    SC3  610   2.605   3.865   2.413 -0.3243  0.0819 -0.0416
    1TYR     BB  611   1.796   3.053   4.641  0.1005  0.0228  0.0199
    1TYR    SC1  612   2.075   3.111   4.805  0.0271 -0.0444 -0.1366
    1TYR    SC2  613   2.298   3.032   4.935  0.0378  0.0718 -0.0827
    1TYR    SC3  614   2.310   3.235   4.758 -0.0614  0.2145  0.0694
    2LEU     BB  615   1.955   2.758   4.440  0.2003  0.0430 -0.1410
    2LEU    SC1  616   2.134   2.613   4.634 -0.1476 -0.1736  0.0264
    3TYR     BB  617   1.699   2.610   4.337  0.1236  0.0220 -0.2326
    3TYR    SC1  618   1.751   2.312   4.391 -0.0155  0.2237  0.0747
    3TYR    SC2  619   1.933   2.122   4.451 -0.0388  0.2741  0.3222
    3TYR    SC3  620   1.696   2.053   4.341  0.0356  0.1841  0.2156
    1TYR     BB  621   1.077   3.204   5.916  0.0893  0.1976 -0.0644
    1TYR    SC1  622   1.288   3.266   6.148 -0.1966 -0.2261  0.0234
    1TYR    SC2  623   1.530   3.341   6.243 -0.2193 -0.1673  0.0356
    1TYR    SC3  624   1.398   3.135   6.357 -0.2770 -0.0540  0.1781
    2LEU     BB  625   1.135   3.326   5.614 -0.4373 -0.2874 -0.1882
    2LEU    SC1  626   0.996   3.628   5.702 -0.2374  0.1733  0.1046
    3TYR     BB  627   1.093   3.398   5.299 -0.0672  0.1860 -0.0545
    3TYR    SC1  628   0.927   3.205   5.132  0.1578 -0.2758 -0.2177
    3TYR    SC2  629   0.723   3.033   5.089  0.1238 -0.2851 -0.0281
    3TYR    SC3  630   0.859   3.135   4.880 -0.1642 -0.1703 -0.1664
    1TYR     BB  631   3.477   3.218   5.443 -0.0673 -0.0409  0.4804
    1TYR    SC1  632   3.517   3.506   5.615 -0.0376  0.1769 -0.1523
    1TYR    SC2  633   3.552   3.760   5.700 -0.0371  0.0737  0.1723
    1TYR    SC3  634   3.738   3.572   5.755  0.0613  0.0387 -0.2400
    2LEU     BB  635   3.532   3.363   5.131  0.3708  0.2431 -0.0412
    2LEU    SC1  636   3.603   3.664   5.170  0.2718  0.0548  0.1831
    3TYR     BB  637   3.533   3.219   4.849 -0.0901  0.1083 -0.0601
    3TYR    SC1  638   3.795   3.077   4.715  0.1514  0.2956 -0.2724
    3TYR    SC2  639   3.882   2.871   4.565  0.1246  0.0697  0.0098
    3TYR    SC3  640   4.047   2.986   4.745  0.0328  0.0594  0.1015
    1TYR     BB  641   2.304   4.801   2.837 -0.1463  0.1465  0.3048
    1TYR    SC1  642   1.954   4.848   2.831 -0.1377 -0.2983  0.1969
    1TYR    SC2  643   1.761   4.855   2.643 -0.0169 -0.2615  0.0726
    1TYR    SC3  644   1.708   4.939   2.894 -0.0062  0.3355 -0.1035
    2LEU     BB  645   2.477   5.083   2.773  0.0936  0.3027 -0.0285
    2LEU    SC1  646   2.301   5.286   2.604  0.2430 -0.1340 -0.0306
    3TYR     BB  647   2.690   5.239   2.945 -0.0028  0.0902 -0.1187
    3TYR    SC1  648   2.671   5.357   3.274 -0.2560 -0.1454 -0.2718
    3TYR    SC2  649   2.691   5.557   3.455  0.1378 -0.2818 -0.1514
    3TYR    SC3  650   2.729   5.301   3.531 -0.3951 -0.4212 -0.2962
    1TYR     BB  651   5.062   3.766   3.291 -0.2377  0.2908  0.1429
    1TYR    SC1  652   5.114   3.888   3.030  0.4297 -0.1612  0.0473
    1TYR    SC2  653   5.166   4.140   2.949 -0.4694  0.0331 -0.0674
    1TYR    SC3  654   5.098   3.952   2.768 -0.4440 -0.1144  0.0731
    2LEU     BB  655   4.676   3.844   3.433 -0.2112 -0.2469 -0.0003
    2LEU    SC1  656   4.652   3.775   3.771 -0.3514  0.0336 -0.3249
    3TYR     BB  657   4.424   3.934   3.398  0.0445  0.1172 -0.0276
    3TYR    SC1  658   4.194   3.763   3.246  0.1992 -0.2939  0.1955
    3TYR    SC2  659   4.086   3.552   3.115  0.2156 -0.2847  0.1671
    3TYR    SC3  660   3.963   3.653   3.334  0.0305 -0.1149 -0.0098
    1TYR     BB  661   3.865   4.026   2.184 -0.2883 -0.1074 -0.3656
    1TYR    SC1  662   4.107   3.880   2.173 -0.0226 -0.2069  0.2429
    1TYR    SC2  663   4.194   3.625   2.158 -0.0220 -0.2116  0.3192
    1TYR    SC3  664   4.324   3.802   2.314  0.3593 -0.0031 -0.1970
    2LEU     BB  665   3.850   4.179   1.870 -0.1872 -0.1013 -0.1554
    2LEU    SC1  666   3.856   4.493   1.999 -0.0580 -0.0523  0.0920
    3TYR     BB  667   3.911   4.147   1.534 -0.4227 -0.1238  0.0971
    3TYR    SC1  668   4.204   3.997   1.608  0.2082  0.0813 -0.1423
    3TYR    SC2  669   4.322   3.829   1.784 -0.2287 -0.1927 -0.0921
    3TYR    SC3  670   4.471   3.959   1.600  0.1793 -0.2596  0.1758
    1TYR     BB  671   3.749   4.131   3.964  0.0097 -0.2611  0.1731
    1TYR    SC1  672   4.035   3.953   3.973  0.1242 -0.0993  0.0905
    1TYR    SC2  673   4.153   3.841   3.757  0.1944  0.0496  0.0503
    1TYR    SC3  674   4.225   3.764   4.006  0.1879 -0.0476  0.0227
    2LEU     BB  675   3.750   4.304   4.223  0.0185 -0.0040  0.0293
    2LEU    SC1  676   4.008   4.428   4.259 -0.2202 -0.0941 -0.0193
    3TYR     BB  677   3.525   4.521   4.227  0.1827 -0.0080  0.1102
    3TYR    SC1  678   3.531   4.600   4.535  0.2123 -0.0960  0.1168
    3TYR    SC2  679   3.648   4.686   4.762  0.0991  0.0098  0.1360
    3TYR    SC3  680   3.380   4.708   4.731  0.1346  0.1765 -0.0850
    1TYR     BB  681   2.757   4.136   4.513 -0.1928  0.2697 -0.2645
    1TYR    SC1  682   2.625   3.829   4.585  0.1093  0.0668 -0.0703
    1TYR    SC2  683   2.569   3.565   4.571  0.2837  0.0234  0.0225
    1TYR    SC3  684   2.553   3.694   4.808  0.4491  0.0369  0.0278
    2LEU     BB  685   2.806   4.263   4.770  0.0674  0.2131  0.2232
    2LEU    SC1  686   2.508   4.230   4.890 -0.2217  0.0977 -0.1834
    3TYR     BB  687   2.956   4.521   4.852 -0.2797 -0.0755 -0.0619
    3TYR    SC1  688   3.215   4.378   4.974  0.0105 -0.1493  0.0004
    3TYR    SC2  689   3.321   4.157   5.087  0.0742 -0.1023  0.0332
    3TYR    SC3  690   3.449   4.394   5.108 -0.0630 -0.0344  0.1171
    1TYR     BB  691   4.550   3.309   2.208 -0.2555 -0.0502  0.2350
    1TYR    SC1  692   4.780   3.125   2.133  0.1147  0.0694  0.4066
    1TYR    SC2  693   4.917   2.922   2.019 -0.1480  0.0670  0.0755
    1TYR    SC3  694   5.044   3.151   2.082  0.0534 -0.0189 -0.0072
    2LEU     BB  695   4.510   3.316   2.537 -0.0123 -0.0885 -0.0941
    2LEU    SC1  696   4.185   3.391   2.596 -0.3700  0.1072 -0.0058
    3TYR     BB  697   4.634   3.197   2.770  0.0031 -0.0909 -0.1417
    3TYR    SC1  698   4.828   3.008   2.662 -0.0131 -0.1553  0.0416
    3TYR    SC2  699   4.945   2.799   2.537  0.1284 -0.1460  0.1554
    3TYR    SC3  700   5.073   3.036   2.553 -0.0370 -0.0440  0.0148
    1TYR     BB  701   3.035   4.460   4.290 -0.1775  0.1687  0.0063
    1TYR    SC1  702   2.804   4.635   4.357 -0.1278 -0.2589  0.2119
    1TYR    SC2  703   2.638   4.846   4.332  0.2566  0.0054 -0.4116
    1TYR    SC3  704   2.585   4.654   4.514 -0.4029  0.3502 -0.1972
    2LEU     BB  705   3.015   4.206   4.123  0.3714  0.1014 -0.0530
    2LEU    SC1  706   3.279   4.042   4.070 -0.2924  0.0976 -0.1311
    3TYR     BB  707   2.727   4.114   4.009  0.2550 -0.4378 -0.2697
    3TYR    SC1  708   2.530   4.342   4.139  0.0312 -0.2466  0.0854
    3TYR    SC2  709   2.365   4.553   4.111  0.5794  0.2261  0.1655
    3TYR    SC3  710   2.335   4.385   4.320  0.0222  0.0948  0.0025
    1TYR     BB  711   3.565   1.801   2.567 -0.0290 -0.1095  0.0181
    1TYR    SC1  712   3.520   1.619   2.320 -0.1796  0.0370  0.1521
    1TYR    SC2  713   3.463   1.575   2.060  0.0730  0.1669  0.0697
    1TYR    SC3  714   3.391   1.394   2.247  0.1042 -0.0470 -0.1200
    2LEU     BB  715   3.573   2.134   2.396  0.1914  0.2141 -0.0713
    2LEU    SC1  716   3.662   2.051   2.108 -0.2415  0.2565 -0.1281
    3TYR     BB  717   3.710   2.274   2.654 -0.0636 -0.1060  0.2358
    3TYR    SC1  718   3.790   2.095   2.857  0.0550  0.1772  0.0788
    3TYR    SC2  719   3.882   1.866   2.965 -0.0461  0.2040  0.2260
    3TYR    SC3  720   3.644   1.966   3.044 -0.2594  0.0810 -0.2201
    1TYR     BB  721   4.264   4.242   2.978  0.0283 -0.0287 -0.2996
    1TYR    SC1  722   4.296   4.509   3.150 -0.1662  0.0674 -0.2749
    1TYR    SC2  723   4.286   4.770   3.220 -0.3607 -0.0660  0.2559
    1TYR    SC3  724   4.423   4.595   3.373  0.3431 -0.1969 -0.4421
    2LEU     BB  725   4.098   4.267   2.701 -0.1022  0.1547  0.0183
    2LEU    SC1  726   3.978   3.946   2.700  0.2292 -0.0432 -0.0172
    3TYR     BB  727   4.162   4.383   2.451 -0.1507 -0.0774  0.0001
    3TYR    SC1  728   4.336   4.289   2.202 -0.3012 -0.0786  0.0498
    3TYR    SC2  729   4.325   4.264   1.933  0.2893  0.3472 -0.0412
    3TYR    SC3  730   4.515   4.133   2.073 -0.0495  0.0825  0.1936
    1TYR     BB  731   2.535   2.663   4.292  0.1823 -0.2168 -0.2089
    1TYR    SC1  732   2.398   2.935   4.255 -0.5816  0.1071 -0.1920
    1TYR    SC2  733   2.488   3.190   4.255  0.0183 -0.0819  0.0869
    1TYR    SC3  734   2.233   3.137   4.327 -0.0203  0.4097  0.3712
    2LEU     BB  735   2.877   2.689   4.171 -0.2137 -0.0317 -0.0890
    2LEU    SC1  736   2.976   2.413   4.348  0.1619  0.2039  0.1769
    3TYR     BB  737   3.090   2.899   4.090  0.3093  0.1673 -0.1032
    3TYR    SC1  738   3.335   2.776   4.160 -0.0668  0.1023 -0.1620
    3TYR    SC2  739   3.448   2.533   4.191 -0.2436  0.0293 -0.0718
    3TYR    SC3  740   3.604   2.753   4.176 -0.0858 -0.0798 -0.0691
    1TYR     BB  741   1.599   3.451   4.281  0.1033  0.0094  0.4047
    1TYR    SC1  742   1.350   3.260   4.287 -0.4265  0.3293  0.2020
    1TYR    SC2  743   1.319   3.043   4.444 -0.2128 -0.0085 -0.1976
    1TYR    SC3  744   1.111   3.135   4.298 -0.2096 -0.1885 -0.3199
    2LEU     BB  745   1.585   3.691   4.497 -0.0454  0.4717  0.1537
    2LEU    SC1  746   1.323   3.866   4.472 -0.1120 -0.1470  0.0965
    3TYR     BB  747   1.757   3.565   4.742  0.5039  0.0200 -0.0584
    3TYR    SC1  748   1.930   3.720   4.901  0.1260 -0.1262  0.0055
    3TYR    SC2  749   2.134   3.893   4.931  0.1497 -0.1799  0.1636
    3TYR    SC3  750   2.003   3.800   5.148 -0.0505 -0.1376  0.0633
    1TYR     BB  751   3.679   4.038   3.092 -0.0263 -0.1461 -0.2197
    1TYR    SC1  752   3.696   4.334   2.973 -0.0092  0.0857  0.0356
    1TYR    SC2  753   3.731   4.565   2.838  0.0164  0.0741  0.0224
    1TYR    SC3  754   3.834   4.537   3.086 -0.3705  0.2446  0.2119
    2LEU     BB  755   3.688   4.079   3.461 -0.2332  0.2690 -0.0485
    2LEU    SC1  756   3.402   3.985   3.596 -0.0161 -0.2355 -0.0012
    3TYR     BB  757   4.027   4.232   3.475  0.1665  0.3300  0.0887
    3TYR    SC1  758   4.172   4.292   3.677 -0.1375  0.1348 -0.1928
    3TYR    SC2  759   4.255   4.510   3.813 -0.0696  0.0614 -0.1151
    3TYR    SC3  760   4.335   4.263   3.891 -0.1209  0.0106 -0.2207
    1TYR     BB  761   3.820   2.770   3.443 -0.0167  0.2126  0.0260
    1TYR    SC1  762   3.766   3.072   3.384 -0.0210  0.1176 -0.1623
    1TYR    SC2  763   3.658   3.309   3.454 -0.0856  0.0453 -0.0114
    1TYR    SC3  764   3.903   3.240   3.544 -0.2559 -0.1387  0.3372
    2LEU     BB  765   4.052   2.591   3.377 -0.0341  0.2825 -0.1415
    2LEU    SC1  766   4.163   2.363   3.189  0.2052 -0.0687  0.0824
    3TYR     BB  767   4.386   2.830   3.453  0.0045 -0.0231  0.0619
    3TYR    SC1  768   4.629   2.792   3.632  0.0475 -0.2471  0.1114
    3TYR    SC2  769   4.839   2.944   3.707 -0.0589 -0.1424  0.2020
    3TYR    SC3  770   4.732   2.766   3.880 -0.0447 -0.1959  0.1559
    1TYR     BB  771   2.100   4.465   4.718  0.0393 -0.1672 -0.1615
    1TYR    SC1  772   1.938   4.319   4.906  0.1542  0.0478  0.1727
    1TYR    SC2  773   1.833   4.221   5.135 -0.1436  0.3858  0.1925
    1TYR    SC3  774   1.728   4.149   4.897  0.1793  0.0180  0.1485
    2LEU     BB  775   1.961   4.702   4.590  0.3784 -0.0003  0.0765
    2LEU    SC1  776   2.185   4.929   4.606  0.1083 -0.1412  0.1464
    3TYR     BB  777   1.637   4.871   4.475 -0.1433  0.1775 -0.3662
    3TYR    SC1  778   1.509   4.589   4.553 -0.3526  0.0390 -0.0436
    3TYR    SC2  779   1.553   4.322   4.545  0.4030  0.1212  0.3040
    3TYR    SC3  780   1.323   4.424   4.447  0.1775 -0.6231 -0.0288
    1TYR     BB  781   4.001   3.377   4.136 -0.2716  0.1320  0.2375
    1TYR    SC1  782   3.793   3.501   3.953 -0.0699  0.2305  0.0698
    1TYR    SC2  783   3.773   3.662   3.737  0.1570  0.3915  0.1631
    1TYR    SC3  784   3.550   3.562   3.852  0.0377  0.0793 -0.3021
    2LEU     BB  785   3.994   3.075   4.116 -0.1011  0.3530 -0.0351
    2LEU    SC1  786   4.263   2.946   4.314 -0.2625 -0.1092  0.3904
    3TYR     BB  787   4.044   2.892   3.845  0.0060  0.0455  0.0300
    3TYR    SC1  788   4.236   2.638   3.907 -0.1710 -0.3012 -0.2205
    3TYR    SC2  789   4.312   2.386   3.847  0.1041 -0.3229  0.1706
    3TYR    SC3  790   4.435   2.521   4.046  0.0124  0.1530 -0.0756
    1TYR     BB  791   3.289   3.210   1.207 -0.1182  0.1534 -0.1532
    1TYR    SC1  792   3.502   3.266   1.023  0.1291 -0.2714 -0.0919
    1TYR    SC2  793   3.626   3.491   0.941 -0.0481 -0.1262  0.0278
    1TYR    SC3  794   3.658   3.261   0.802  0.0427 -0.0021 -0.1632
    2LEU     BB  795   3.377   2.907   1.382  0.0304  0.1908 -0.2128
    2LEU    SC1  796   3.217   2.742   1.170  0.0501 -0.1350  0.1211
    3TYR     BB  797   3.304   2.913   1.681  0.1473 -0.0665 -0.0337
    3TYR    SC1  798   3.354   2.621   1.782 -0.3495 -0.2051  0.1317
    3TYR    SC2  799   3.492   2.404   1.862 -0.2643 -0.1940  0.0183
    3TYR    SC3  800   3.332   2.389   1.646  0.0684 -0.0393 -0.2510
    1TYR     BB  801   2.314   2.440   3.600  0.2309  0.2641  0.1556
    1TYR    SC1  802   2.012   2.339   3.586  0.1100 -0.1037 -0.1631
    1TYR    SC2  803   1.765   2.231   3.583 -0.0811  0.2829  0.2240
    1TYR    SC3  804   1.820   2.446   3.430  0.0804  0.0889  0.0001
    2LEU     BB  805   2.529   2.578   3.727 -0.0359  0.0900  0.0953
    2LEU    SC1  806   2.688   2.308   3.843  0.0549 -0.1881  0.2259
    3TYR     BB  807   2.584   2.924   3.839 -0.1382 -0.0430  0.1225
    3TYR    SC1  808   2.343   3.132   3.866  0.1252  0.0063  0.3590
    3TYR    SC2  809   2.101   3.215   3.781  0.0723 -0.1201  0.3829
    3TYR    SC3  810   2.300   3.394   3.816  0.1418 -0.0734 -0.1407
    1TYR     BB  811   3.116   1.560   3.270  0.1042  0.0950  0.0716
    1TYR    SC1  812   3.196   1.803   3.161 -0.1054  0.0076  0.2030
    1TYR    SC2  813   3.215   1.951   2.935  0.1732 -0.1367  0.1265
    1TYR    SC3  814   3.075   2.044   3.146  0.1443  0.1274 -0.0044
    2LEU     BB  815   2.978   1.486   3.569  0.2704 -0.3162  0.1217
    2LEU    SC1  816   2.681   1.340   3.501  0.0147  0.1636  0.1572
    3TYR     BB  817   2.973   1.716   3.875  0.0040 -0.4504 -0.1655
    3TYR    SC1  818   3.033   1.503   4.084 -0.0796 -0.2439 -0.2722
    3TYR    SC2  819   2.969   1.410   4.329  0.0625 -0.1352 -0.1925
    3TYR    SC3  820   3.203   1.338   4.214  0.2084  0.1678 -0.0998
    1TYR     BB  821   1.921   1.282   3.925 -0.0326  0.0058 -0.0017
    1TYR    SC1  822   2.109   1.355   3.657 -0.0161 -0.0789  0.1474
    1TYR    SC2  823   2.154   1.216   3.429 -0.0198 -0.0786  0.1466
    1TYR    SC3  824   2.223   1.477   3.445  0.0644 -0.1025  0.1770
    2LEU     BB  825   1.816   1.558   3.990 -0.2017  0.0029 -0.0270
    2LEU    SC1  826   2.027   1.685   4.221  0.3122  0.2571 -0.0307
    3TYR     BB  827   1.709   1.756   3.751 -0.0060  0.3218 -0.4642
    3TYR    SC1  828   1.757   1.576   3.496 -0.0889  0.0162  0.1383
    3TYR    SC2  829   1.806   1.602   3.232  0.0855 -0.0131  0.1666
    3TYR    SC3  830   1.630   1.417   3.319 -0.1709  0.1712  0.0550
    1TYR     BB  831   2.624   3.277   2.942  0.1540  0.1417  0.2907
    1TYR    SC1  832   2.487   3.285   3.191  0.2574  0.1670  0.1836
    1TYR    SC2  833   2.443   3.239   3.453 -0.3331  0.2220  0.1102
    1TYR    SC3  834   2.427   3.491   3.355  0.1579  0.2438  0.0537
    2LEU     BB  835   2.837   3.517   2.922 -0.0529  0.2968 -0.1108
    2LEU    SC1  836   2.706   3.790   2.921  0.3861 -0.1065  0.1463
    3TYR     BB  837   3.118   3.338   2.937 -0.0299 -0.0694 -0.0400
    3TYR    SC1  838   3.214   3.436   3.198 -0.0454 -0.0366 -0.0450
    3TYR    SC2  839   3.286   3.491   3.452 -0.1626 -0.3234  0.0548
    3TYR    SC3  840   3.431   3.589   3.247  0.0398 -0.2366  0.2349
    1TYR     BB  841   5.022   3.784   4.074  0.2416  0.0307 -0.1020
    1TYR    SC1  842   5.242   3.857   4.242  0.2168 -0.0808 -0.2651
    1TYR    SC2  843   5.306   3.806   4.500  0.0818 -0.0505 -0.2247
    1TYR    SC3  844   5.484   3.928   4.338  0.1608 -0.0538 -0.1410
    2LEU     BB  845   4.855   3.515   4.194 -0.1619 -0.2732  0.0056
    2LEU    SC1  846   5.021   3.326   3.992 -0.1312  0.1823 -0.1881
    3TYR     BB  847   4.595   3.449   4.178  0.1575 -0.0965  0.1862
    3TYR    SC1  848   4.423   3.474   4.436 -0.1367 -0.5167  0.0624
    3TYR    SC2  849   4.222   3.349   4.566 -0.4604 -0.0237  0.0686
    3TYR    SC3  850   4.334   3.571   4.672 -0.3239  0.0501 -0.2176
    1TYR     BB  851   2.488   3.915   3.626  0.2307  0.1400  0.2589
    1TYR    SC1  852   2.738   3.823   3.507 -0.1207 -0.2453  0.1048
    1TYR    SC2  853   2.978   3.833   3.385 -0.2959  0.0752 -0.2401
    1TYR    SC3  854   2.849   3.597   3.410  0.1611 -0.1528  0.2011
    2LEU     BB  855   2.260   3.916   3.816  0.2239 -0.4981 -0.1942
    2LEU    SC1  856   2.037   3.805   3.607  0.0539  0.2832 -0.0723
    3TYR     BB  857   2.148   4.109   3.986  0.0329  0.1325 -0.1136
    3TYR    SC1  858   2.087   4.017   4.266  0.2336  0.6713 -0.1183
    3TYR    SC2  859   2.225   3.988   4.496  0.1474  0.1241 -0.1205
    3TYR    SC3  860   1.964   4.055   4.503  0.1495  0.1265 -0.0600
    1TYR     BB  861   0.918   3.639   4.550 -0.3121  0.3414 -0.0916
    1TYR    SC1  862   0.875   3.638   4.256 -0.0492  0.1610  0.0786
    1TYR    SC2  863   0.814   3.474   4.051  0.0546  0.3494 -0.1070
    1TYR    SC3  864   0.716   3.725   4.057 -0.4249  0.1753  0.3699
    2LEU     BB  865   1.203   3.447   4.731 -0.1476  0.1644 -0.1879
    2LEU    SC1  866   1.274   3.653   4.924  0.2413  0.0492 -0.0528
    3TYR     BB  867   1.392   3.166   4.885  0.1333  0.1171  0.0223
    3TYR    SC1  868   1.312   2.972   5.108 -0.0740  0.1214 -0.0353
    3TYR    SC2  869   1.247   2.854   5.342 -0.0256  0.2689  0.0544
    3TYR    SC3  870   1.178   2.738   5.108  0.0928  0.0221  0.1376
    1TYR     BB  871   1.523   2.982   3.455 -0.3989  0.0388 -0.0633
    1TYR    SC1  872   1.239   2.912   3.339 -0.0393 -0.0700  0.0131
    1TYR    SC2  873   1.026   2.879   3.176 -0.1243  0.0383  0.0999
    1TYR    SC3  874   0.991   2.895   3.443 -0.0044  0.0361  0.1167
    2LEU     BB  875   1.476   3.209   3.723 -0.0923  0.1397 -0.0155
    2LEU    SC1  876   1.643   3.502   3.782  0.2017  0.3649 -0.0717
    3TYR     BB  877   1.215   3.191   3.822 -0.2841 -0.2182  0.2992
    3TYR    SC1  878   1.043   3.331   3.587 -0.0353 -0.4191 -0.1280
    3TYR    SC2  879   0.881   3.295   3.375 -0.2364  0.0438 -0.0677
    3TYR    SC3  880   0.788   3.419   3.596  0.0135 -0.2914  0.2405
    1TYR     BB  881   2.051   3.343   5.257  0.2624  0.0678  0.2591
    1TYR    SC1  882   2.316   3.458   5.196 -0.0312  0.0731 -0.1778
    1TYR    SC2  883   2.567   3.365   5.229 -0.0878 -0.0042  0.0584
    1TYR    SC3  884   2.521   3.631   5.226 -0.0126  0.0097  0.0957
    2LEU     BB  885   1.845   3.409   5.441 -0.0462 -0.1008 -0.2493
    2LEU    SC1  886   1.595   3.420   5.256  0.0042 -0.0550  0.0207
    3TYR     BB  887   1.743   3.494   5.720 -0.1215 -0.0776 -0.3374
    3TYR    SC1  888   1.535   3.661   5.869  0.1982  0.1196 -0.1762
    3TYR    SC2  889   1.335   3.682   6.049  0.1582 -0.0890 -0.1928
    3TYR    SC3  890   1.417   3.900   5.911  0.2219  0.0849  0.1088
    1TYR     BB  891   3.573   1.619   3.882 -0.0216  0.3064 -0.0262
    1TYR    SC1  892   3.469   1.338   3.813 -0.5265  0.0775 -0.0776
    1TYR    SC2  893   3.378   1.226   3.585 -0.4330 -0.3236  0.0704
    1TYR    SC3  894   3.614   1.146   3.689 -0.2659  0.1579  0.0918
    2LEU     BB  895   3.463   1.780   3.636 -0.2225  0.0544 -0.0621
    2LEU    SC1  896   3.609   1.663   3.371  0.2353 -0.0895 -0.2583
    3TYR     BB  897   3.327   2.037   3.613  0.0019  0.2472 -0.4122
    3TYR    SC1  898   3.425   2.199   3.352 -0.0004 -0.0994 -0.0473
    3TYR    SC2  899   3.399   2.349   3.129  0.0953  0.1335  0.0933
    3TYR    SC3  900   3.633   2.347   3.265  0.0304  0.0149  0.2067
    1TYR     BB  901   4.104   5.059   3.579  0.2353  0.0928  0.0283
    1TYR    SC1  902   4.170   5.004   3.844 -0.0129  0.3240  0.1034
    1TYR    SC2  903   4.149   4.859   4.071 -0.2662  0.2803  0.0558
    1TYR    SC3  904   4.306   5.079   4.065  0.0809  0.0456  0.1458
    2LEU     BB  905   3.867   4.796   3.479  0.0969 -0.0941 -0.2657
    2LEU    SC1  906   3.635   4.990   3.470  0.4854  0.1353 -0.0596
    3TYR     BB  907   3.794   4.589   3.754 -0.2194 -0.0234  0.1194
    3TYR    SC1  908   3.495   4.531   3.705 -0.0573 -0.1110 -0.0589
    3TYR    SC2  909   3.279   4.693   3.685  0.0402  0.0263 -0.0190
    3TYR    SC3  910   3.259   4.454   3.810 -0.1370 -0.0519 -0.1913
   7.66661   7.66661   7.66661
