Generated by trjconv : Martini system from ../2_Creating_coordinates/TYR-TRP-TYR_aa.pdb t=   0.00000
 1300
    1TYR     BB    1   5.875   3.531   6.295 -0.0442  0.0513 -0.4380
    1TYR    SC1    2   6.005   3.666   6.538  0.1168  0.1290 -0.1334
    1TYR    SC2    3   6.113   3.903   6.609  0.0130  0.0303  0.4067
    1TYR    SC3    4   6.171   3.680   6.750 -0.1657 -0.2043  0.1255
    2TRP     BB    5   5.908   3.718   6.110  0.1145  0.0434 -0.1097
    2TRP    SC1    6   5.630   3.816   5.952 -0.1941 -0.0285 -0.0994
    2TRP    SC2    7   5.387   3.920   5.899 -0.2087 -0.1150 -0.2067
    2TRP    SC3    8   5.419   3.749   6.106 -0.1668  0.1661  0.0259
    2TRP    SC4    9   5.172   3.838   6.041 -0.1830  0.0573 -0.0642
    3TYR     BB   10   6.103   3.985   6.018 -0.2180  0.1540 -0.1671
    3TYR    SC1   11   6.313   3.845   5.820 -0.0373 -0.2307 -0.0890
    3TYR    SC2   12   6.440   3.655   5.676  0.0833 -0.1801 -0.0513
    3TYR    SC3   13   6.478   3.916   5.618 -0.1107 -0.1664 -0.1268
    1TYR     BB   14   5.477   3.124   2.315 -0.0565 -0.2186  0.0380
    1TYR    SC1   15   5.332   2.845   2.222 -0.1572  0.2987 -0.0304
    1TYR    SC2   16   5.153   2.676   2.112 -0.0013  0.1302 -0.0303
    1TYR    SC3   17   5.159   2.712   2.380 -0.0911  0.2035 -0.0375
    2TRP     BB   18   5.868   3.041   2.187  0.3244  0.0376 -0.0343
    2TRP    SC1   19   5.882   3.317   2.082  0.1149  0.0859 -0.1565
    2TRP    SC2   20   5.767   3.534   1.970 -0.1229  0.0732  0.0527
    2TRP    SC3   21   5.834   3.537   2.232  0.0535 -0.0386  0.0108
    2TRP    SC4   22   5.695   3.743   2.126 -0.2333 -0.1034  0.2450
    3TYR     BB   23   5.973   2.843   2.277 -0.4396  0.2523 -0.0305
    3TYR    SC1   24   6.228   2.764   2.417  0.0051  0.0926 -0.1791
    3TYR    SC2   25   6.403   2.608   2.551  0.1180  0.1687 -0.2360
    3TYR    SC3   26   6.475   2.857   2.475  0.0585  0.1259 -0.4428
    1TYR     BB   27   4.716   4.607   4.570  0.2405  0.1420 -0.1226
    1TYR    SC1   28   4.760   4.385   4.396 -0.1641 -0.2047 -0.1240
    1TYR    SC2   29   4.733   4.236   4.173  0.2833 -0.3840 -0.0717
    1TYR    SC3   30   4.979   4.302   4.262  0.1092  0.3716 -0.0710
    2TRP     BB   31   5.034   4.663   4.654  0.3355 -0.2002  0.0574
    2TRP    SC1   32   5.248   4.582   4.507 -0.1713  0.1744  0.2511
    2TRP    SC2   33   5.425   4.550   4.306 -0.0133 -0.2796  0.4464
    2TRP    SC3   34   5.490   4.700   4.521 -0.1451  0.1248  0.2161
    2TRP    SC4   35   5.671   4.659   4.325 -0.0768 -0.1093  0.3244
    3TYR     BB   36   5.225   4.831   4.919  0.0549 -0.1727 -0.1662
    3TYR    SC1   37   5.216   4.680   5.210 -0.0274 -0.6218  0.1307
    3TYR    SC2   38   5.354   4.550   5.402  0.1257 -0.0973  0.3987
    3TYR    SC3   39   5.128   4.685   5.465 -0.0150 -0.2019  0.1359
    1TYR     BB   40   5.784   3.753   0.401  0.2005  0.2910 -0.1265
    1TYR    SC1   41   6.008   3.542   0.406 -0.2436 -0.1453  0.2604
    1TYR    SC2   42   6.018   3.289   0.313  0.0626 -0.0238 -0.0683
    1TYR    SC3   43   6.244   3.413   0.391 -0.0205  0.2782 -0.2858
    2TRP     BB   44   5.771   3.987   0.234 -0.1543 -0.0976  0.3035
    2TRP    SC1   45   5.535   4.066   0.099 -0.0303  0.1154 -0.1474
    2TRP    SC2   46   5.345   4.154  -0.071 -0.1227  0.2661  0.0293
    2TRP    SC3   47   5.539   4.322   0.014  0.0654  0.1261 -0.1127
    2TRP    SC4   48   5.359   4.405  -0.169  0.4022  0.0630 -0.4905
    3TYR     BB   49   6.005   4.089   0.039 -0.0490 -0.0245 -0.0591
    3TYR    SC1   50   5.967   4.375  -0.064  0.2060  0.1732 -0.1921
    3TYR    SC2   51   5.850   4.618  -0.053  0.1088  0.1183  0.1087
    3TYR    SC3   52   6.116   4.598  -0.097  0.0272  0.2440 -0.5883
    1TYR     BB   53   7.354   3.885   5.963 -0.0311 -0.2028 -0.2290
    1TYR    SC1   54   7.349   3.586   5.902 -0.0617  0.1141  0.0996
    1TYR    SC2   55   7.296   3.416   5.699  0.0951  0.2256 -0.0371
    1TYR    SC3   56   7.409   3.324   5.926 -0.0053  0.1143 -0.0312
    2TRP     BB   57   7.366   4.182   5.822  0.0388  0.1609 -0.1763
    2TRP    SC1   58   7.620   4.190   5.623 -0.4531  0.0981 -0.0918
    2TRP    SC2   59   7.753   4.240   5.394 -0.3599 -0.0830 -0.0788
    2TRP    SC3   60   7.738   4.430   5.585 -0.2871  0.0071 -0.1615
    2TRP    SC4   61   7.874   4.478   5.357 -0.0444 -0.2363 -0.0747
    3TYR     BB   62   7.099   4.364   5.666  0.0013 -0.1632 -0.2180
    3TYR    SC1   63   7.275   4.510   5.450 -0.3611  0.2417 -0.5903
    3TYR    SC2   64   7.459   4.686   5.359  0.1887  0.0533  0.0565
    3TYR    SC3   65   7.420   4.453   5.229  0.0657  0.2831 -0.3369
    1TYR     BB   66   6.565   4.619   7.713 -0.0646 -0.4879  0.0313
    1TYR    SC1   67   6.587   4.350   7.521 -0.1331  0.0517 -0.2682
    1TYR    SC2   68   6.381   4.205   7.426 -0.0837 -0.0720 -0.1902
    1TYR    SC3   69   6.634   4.136   7.363 -0.0554 -0.0857 -0.0644
    2TRP     BB   70   6.769   4.643   7.896  0.0251  0.1946 -0.0678
    2TRP    SC1   71   7.035   4.754   7.806  0.2595 -0.0219 -0.3122
    2TRP    SC2   72   7.222   4.868   7.648  0.2055  0.2387 -0.1951
    2TRP    SC3   73   7.003   5.008   7.721 -0.0014 -0.0357 -0.2660
    2TRP    SC4   74   7.186   5.119   7.556 -0.0654  0.2091 -0.1783
    3TYR     BB   75   6.786   4.532   8.184  0.2407 -0.0046 -0.0420
    3TYR    SC1   76   6.641   4.771   8.380 -0.2323 -0.3236  0.3567
    3TYR    SC2   77   6.464   4.973   8.411  0.0357  0.0495 -0.2760
    3TYR    SC3   78   6.697   4.975   8.549 -0.0225  0.0917 -0.1768
    1TYR     BB   79   4.718   5.364   3.351 -0.1457 -0.0080 -0.0234
    1TYR    SC1   80   5.019   5.184   3.369  0.0636 -0.2502 -0.0035
    1TYR    SC2   81   5.025   4.920   3.427  0.2003 -0.2976 -0.2201
    1TYR    SC3   82   5.235   5.036   3.304  0.1306 -0.0912 -0.1498
    2TRP     BB   83   4.524   5.076   3.256 -0.0795  0.1624  0.0137
    2TRP    SC1   84   4.618   4.948   2.971  0.1841  0.6093 -0.6632
    2TRP    SC2   85   4.743   4.789   2.793  0.1954 -0.0516 -0.1180
    2TRP    SC3   86   4.886   4.964   2.940  0.2639  0.1137 -0.3720
    2TRP    SC4   87   5.003   4.835   2.735  0.1475 -0.0463 -0.3397
    3TYR     BB   88   4.296   5.064   3.392 -0.2320  0.0151  0.1870
    3TYR    SC1   89   4.160   4.865   3.549 -0.1351  0.1187 -0.0783
    3TYR    SC2   90   3.941   4.734   3.639  0.1149  0.0875  0.5457
    3TYR    SC3   91   4.108   4.614   3.463 -0.4706  0.2063 -0.1497
    1TYR     BB   92   6.007   3.010   3.764  0.0507  0.1864 -0.2221
    1TYR    SC1   93   6.221   2.943   3.519  0.0881  0.1992  0.0970
    1TYR    SC2   94   6.328   2.909   3.274  0.2502 -0.0443  0.1968
    1TYR    SC3   95   6.442   2.790   3.488 -0.1596 -0.2287  0.3240
    2TRP     BB   96   5.687   3.292   3.764  0.0250 -0.0591 -0.1555
    2TRP    SC1   97   5.718   3.282   4.083  0.0511  0.0720  0.1545
    2TRP    SC2   98   5.664   3.251   4.346 -0.0145 -0.0768  0.1247
    2TRP    SC3   99   5.624   3.046   4.174 -0.6784  0.2224 -0.1195
    2TRP    SC4  100   5.588   3.009   4.439 -0.1752 -0.1094 -0.0810
    3TYR     BB  101   5.532   3.336   3.576 -0.2102 -0.0119 -0.3838
    3TYR    SC1  102   5.329   3.590   3.544  0.0634  0.1445  0.0257
    3TYR    SC2  103   5.072   3.656   3.591  0.1001  0.2149  0.1311
    3TYR    SC3  104   5.254   3.849   3.540  0.0479  0.1426 -0.3971
    1TYR     BB  105   7.638   4.000   6.954 -0.2743 -0.2762 -0.0661
    1TYR    SC1  106   7.663   4.301   7.093 -0.1405  0.0334  0.0930
    1TYR    SC2  107   7.805   4.528   7.054 -0.0142 -0.0456  0.0871
    1TYR    SC3  108   7.836   4.386   7.282 -0.0179 -0.1100  0.0479
    2TRP     BB  109   7.668   4.087   6.675  0.0343  0.1603 -0.0275
    2TRP    SC1  110   7.880   4.311   6.643 -0.0516 -0.1595  0.0348
    2TRP    SC2  111   8.017   4.539   6.686 -0.2089 -0.0714  0.0780
    2TRP    SC3  112   7.760   4.550   6.606 -0.2935 -0.2302  0.3131
    2TRP    SC4  113   7.902   4.778   6.633 -0.2820 -0.1631 -0.1918
    3TYR     BB  114   7.616   3.945   6.364 -0.0286  0.0436 -0.0883
    3TYR    SC1  115   7.786   4.110   6.179 -0.0097 -0.0016  0.1124
    3TYR    SC2  116   7.898   4.220   5.959 -0.2107 -0.2330 -0.1148
    3TYR    SC3  117   7.947   4.326   6.203 -0.3005  0.2816 -0.3033
    1TYR     BB  118   3.198   2.280   3.752  0.0262  0.1326  0.1497
    1TYR    SC1  119   3.026   2.410   3.989 -0.0982  0.3730 -0.4847
    1TYR    SC2  120   2.833   2.414   4.178  0.1299 -0.4225 -0.1823
    1TYR    SC3  121   3.073   2.530   4.227  0.0257 -0.1896 -0.2042
    2TRP     BB  122   3.053   2.451   3.519 -0.2684 -0.1903  0.1112
    2TRP    SC1  123   2.996   2.293   3.284  0.0753  0.1116  0.1333
    2TRP    SC2  124   2.861   2.074   3.202  0.0388  0.1839 -0.0034
    2TRP    SC3  125   2.739   2.314   3.205  0.0254  0.1786  0.3075
    2TRP    SC4  126   2.595   2.090   3.160  0.0278  0.2200  0.0779
    3TYR     BB  127   2.838   2.699   3.563 -0.1942  0.1940 -0.3267
    3TYR    SC1  128   2.632   2.726   3.322  0.1528  0.2172 -0.2828
    3TYR    SC2  129   2.505   2.685   3.087 -0.0098  0.0643 -0.1707
    3TYR    SC3  130   2.428   2.886   3.248  0.0068  0.0812 -0.1839
    1TYR     BB  131   1.786   3.726   1.703 -0.2407  0.0561  0.1610
    1TYR    SC1  132   1.946   3.683   1.435 -0.0743  0.2113  0.0044
    1TYR    SC2  133   2.013   3.756   1.184  0.3077  0.2026  0.0953
    1TYR    SC3  134   2.123   3.536   1.294 -0.1810 -0.0418  0.1281
    2TRP     BB  135   1.650   3.957   1.813 -0.0937  0.0518  0.1898
    2TRP    SC1  136   1.796   4.202   1.825 -0.0534  0.1793 -0.1297
    2TRP    SC2  137   1.988   4.353   1.941  0.1200 -0.2620  0.1928
    2TRP    SC3  138   1.733   4.368   2.028  0.0859  0.0090  0.0584
    2TRP    SC4  139   1.920   4.532   2.132  0.1262  0.0653 -0.1007
    3TYR     BB  140   1.652   3.875   2.164  0.1378  0.1374  0.1596
    3TYR    SC1  141   1.863   4.017   2.325 -0.0029 -0.4954 -0.2314
    3TYR    SC2  142   1.938   4.065   2.579 -0.1589 -0.1095 -0.2509
    3TYR    SC3  143   2.102   4.133   2.376 -0.2291  0.0185 -0.2663
    1TYR     BB  144   5.057   3.638   5.583  0.0735  0.1467 -0.2597
    1TYR    SC1  145   5.085   3.862   5.444 -0.0296  0.1409  0.1073
    1TYR    SC2  146   5.250   4.076   5.452  0.2432 -0.0555 -0.0336
    1TYR    SC3  147   5.000   4.102   5.354  0.3107  0.1739 -0.1539
    2TRP     BB  148   5.073   3.317   5.364 -0.3678 -0.0834 -0.2298
    2TRP    SC1  149   5.033   3.411   5.101  0.2296  0.0190 -0.0960
    2TRP    SC2  150   4.913   3.534   4.892  0.1735 -0.1473 -0.1643
    2TRP    SC3  151   5.081   3.672   5.052 -0.1594  0.1134 -0.0232
    2TRP    SC4  152   4.956   3.797   4.848 -0.2096 -0.0673 -0.1057
    3TYR     BB  153   5.162   3.062   5.363 -0.0889 -0.3447  0.1139
    3TYR    SC1  154   5.452   2.950   5.393  0.1637  0.3277  0.1326
    3TYR    SC2  155   5.623   2.744   5.425 -0.0797  0.1248  0.1654
    3TYR    SC3  156   5.679   2.984   5.535  0.1289  0.0323  0.2678
    1TYR     BB  157   8.196   3.760   5.984  0.4457 -0.3657  0.2744
    1TYR    SC1  158   8.130   3.797   6.256 -0.1040 -0.1296  0.0234
    1TYR    SC2  159   8.061   3.747   6.512  0.0069 -0.0202  0.0760
    1TYR    SC3  160   8.176   3.983   6.447 -0.0243 -0.0458 -0.0754
    2TRP     BB  161   7.825   3.773   5.817 -0.0883  0.2901 -0.0384
    2TRP    SC1  162   7.732   3.602   6.060  0.2807  0.2304 -0.0296
    2TRP    SC2  163   7.746   3.470   6.294  0.0825  0.1788 -0.0449
    2TRP    SC3  164   7.825   3.349   6.066  0.3050  0.2397 -0.0034
    2TRP    SC4  165   7.854   3.223   6.303 -0.1374  0.0804 -0.0216
    3TYR     BB  166   7.761   3.658   5.530 -0.1760 -0.2536 -0.4059
    3TYR    SC1  167   7.512   3.827   5.461 -0.1589 -0.0279  0.1956
    3TYR    SC2  168   7.323   3.670   5.348 -0.2217  0.0703  0.1615
    3TYR    SC3  169   7.269   3.929   5.401 -0.0535  0.1346  0.0313
    1TYR     BB  170   5.064   2.971   0.309  0.2053 -0.0829 -0.1764
    1TYR    SC1  171   4.780   3.062   0.285  0.0036  0.3925  0.1307
    1TYR    SC2  172   4.563   3.151   0.152 -0.0235 -0.0651 -0.1614
    1TYR    SC3  173   4.540   3.066   0.407 -0.1322  0.1108 -0.1103
    2TRP     BB  174   5.208   3.229   0.460  0.0777 -0.0539  0.0891
    2TRP    SC1  175   5.007   3.410   0.553 -0.1122  0.1141 -0.0009
    2TRP    SC2  176   4.903   3.650   0.621 -0.0430  0.1547 -0.0380
    2TRP    SC3  177   4.750   3.468   0.493 -0.0908  0.1851 -0.0245
    2TRP    SC4  178   4.637   3.689   0.599 -0.0860  0.0569  0.2583
    3TYR     BB  179   5.372   3.477   0.263 -0.2494  0.1717  0.1459
    3TYR    SC1  180   5.246   3.762   0.276 -0.2867  0.1896  0.2307
    3TYR    SC2  181   5.316   3.939   0.468 -0.1489  0.1283  0.2384
    3TYR    SC3  182   5.085   3.970   0.333  0.0013  0.4752  0.0459
    1TYR     BB  183   6.059   2.702   1.723 -0.0456 -0.1638 -0.0928
    1TYR    SC1  184   5.955   2.470   1.628 -0.0852  0.1723 -0.0690
    1TYR    SC2  185   5.807   2.265   1.723  0.1013  0.1858  0.2692
    1TYR    SC3  186   6.038   2.216   1.593 -0.1336  0.1690 -0.1627
    2TRP     BB  187   6.289   2.677   1.912  0.0682 -0.1481  0.2122
    2TRP    SC1  188   6.220   2.421   2.066 -0.0074  0.2589 -0.1838
    2TRP    SC2  189   6.251   2.194   2.210  0.2792  0.2885 -0.1911
    2TRP    SC3  190   6.280   2.188   1.942 -0.1163  0.2605 -0.2403
    2TRP    SC4  191   6.304   1.961   2.085 -0.1998  0.2191 -0.2906
    3TYR     BB  192   6.583   2.705   1.990 -0.2892  0.1773  0.2637
    3TYR    SC1  193   6.851   2.744   1.851  0.0604  0.0647 -0.1481
    3TYR    SC2  194   7.114   2.792   1.814  0.0527  0.1999 -0.0382
    3TYR    SC3  195   6.973   2.660   1.625  0.2609 -0.1280  0.0254
    1TYR     BB  196   1.846   2.880   1.574  0.1211  0.3773  0.1016
    1TYR    SC1  197   1.969   2.921   1.272  0.2421  0.1687 -0.0852
    1TYR    SC2  198   2.107   3.106   1.131  0.0888  0.1064 -0.3229
    1TYR    SC3  199   1.985   2.902   1.003  0.1609 -0.0988 -0.0739
    2TRP     BB  200   1.556   2.818   1.593  0.0405 -0.0670 -0.1785
    2TRP    SC1  201   1.427   3.007   1.866 -0.1476 -0.1161 -0.0611
    2TRP    SC2  202   1.406   3.212   2.041 -0.2440 -0.0424 -0.1577
    2TRP    SC3  203   1.624   3.191   1.882  0.0360 -0.3272  0.2404
    2TRP    SC4  204   1.608   3.389   2.066 -0.3569  0.0971 -0.2128
    3TYR     BB  205   1.451   2.503   1.550 -0.3516  0.0085 -0.1403
    3TYR    SC1  206   1.265   2.425   1.829 -0.2446 -0.0966 -0.1951
    3TYR    SC2  207   1.057   2.349   1.983 -0.1827 -0.1246 -0.1242
    3TYR    SC3  208   1.305   2.258   2.038 -0.1259  0.0364 -0.1090
    1TYR     BB  209   5.076   3.892   3.100  0.0368 -0.0255 -0.2768
    1TYR    SC1  210   5.038   3.946   2.755  0.2228 -0.2655 -0.2693
    1TYR    SC2  211   5.106   4.112   2.553  0.3587 -0.1470 -0.1295
    1TYR    SC3  212   4.933   3.909   2.509  0.1357  0.0704 -0.2888
    2TRP     BB  213   4.830   3.994   3.259  0.2250 -0.0359  0.2025
    2TRP    SC1  214   4.957   4.219   3.424 -0.1966  0.4479  0.1172
    2TRP    SC2  215   5.055   4.439   3.546  0.1003  0.1454  0.4566
    2TRP    SC3  216   5.221   4.276   3.408 -0.1627  0.2630 -0.0263
    2TRP    SC4  217   5.310   4.515   3.497  0.0794  0.0829  0.2400
    3TYR     BB  218   4.659   3.741   3.348  0.4114  0.0172  0.0949
    3TYR    SC1  219   4.439   3.690   3.452  0.2854 -0.4346  0.2168
    3TYR    SC2  220   4.306   3.592   3.666 -0.1335 -0.4618 -0.0408
    3TYR    SC3  221   4.275   3.851   3.594  0.2965 -0.3495  0.1347
    1TYR     BB  222   0.786   3.617   1.398 -0.1734  0.1259 -0.1112
    1TYR    SC1  223   0.662   3.423   1.570 -0.0255 -0.2134 -0.1195
    1TYR    SC2  224   0.470   3.252   1.651 -0.1744  0.0379  0.0756
    1TYR    SC3  225   0.720   3.162   1.606 -0.2759 -0.2485  0.0608
    2TRP     BB  226   1.077   3.759   1.356  0.2412 -0.2803 -0.0718
    2TRP    SC1  227   1.143   3.956   1.589 -0.0004  0.2158 -0.4978
    2TRP    SC2  228   1.200   4.173   1.740 -0.1252  0.0653 -0.2248
    2TRP    SC3  229   1.267   4.169   1.478 -0.1680  0.4518 -0.2486
    2TRP    SC4  230   1.334   4.381   1.632  0.2306  0.0538  0.1640
    3TYR     BB  231   1.351   3.668   1.194  0.0102  0.0676 -0.0645
    3TYR    SC1  232   1.542   3.898   1.282 -0.1809  0.1890  0.1633
    3TYR    SC2  233   1.685   4.034   1.097  0.0174  0.1972  0.3194
    3TYR    SC3  234   1.666   4.128   1.350  0.1388 -0.0481  0.4252
    1TYR     BB  235  -0.190   3.149  -0.387  0.1145  0.2619  0.2282
    1TYR    SC1  236  -0.345   3.325  -0.615  0.0316 -0.1471 -0.0147
    1TYR    SC2  237  -0.540   3.333  -0.801 -0.0485 -0.0135  0.0729
    1TYR    SC3  238  -0.403   3.557  -0.740  0.2039 -0.1268 -0.0601
    2TRP     BB  239  -0.075   2.858  -0.532 -0.0814 -0.1144  0.2286
    2TRP    SC1  240  -0.311   2.735  -0.702 -0.1243 -0.0067  0.1397
    2TRP    SC2  241  -0.533   2.645  -0.825 -0.0435 -0.1014  0.0608
    2TRP    SC3  242  -0.528   2.894  -0.722 -0.1420 -0.0519 -0.0506
    2TRP    SC4  243  -0.748   2.806  -0.850 -0.1328 -0.2212  0.0467
    3TYR     BB  244   0.191   2.883  -0.625  0.4584 -0.0752 -0.1321
    3TYR    SC1  245   0.391   2.957  -0.849 -0.1893  0.1160 -0.1519
    3TYR    SC2  246   0.551   3.163  -0.917  0.1719 -0.1015  0.0045
    3TYR    SC3  247   0.532   2.948  -1.079 -0.2908  0.0868 -0.2140
    1TYR     BB  248   4.099   2.924   6.401 -0.2164 -0.2707 -0.1481
    1TYR    SC1  249   4.053   2.725   6.579 -0.0200 -0.0725 -0.2605
    1TYR    SC2  250   3.938   2.690   6.820  0.1362  0.4065 -0.1020
    1TYR    SC3  251   4.168   2.562   6.761 -0.0127  0.1218 -0.0865
    2TRP     BB  252   4.405   3.193   6.372 -0.1294 -0.1116  0.0173
    2TRP    SC1  253   4.299   3.262   6.091 -0.0420  0.0206  0.1678
    2TRP    SC2  254   4.255   3.353   5.841  0.2716 -0.1448  0.0460
    2TRP    SC3  255   4.396   3.503   6.016  0.0459 -0.0258  0.1306
    2TRP    SC4  256   4.332   3.603   5.773 -0.0523 -0.0067  0.1637
    3TYR     BB  257   4.567   3.426   6.483  0.1611  0.2337 -0.0260
    3TYR    SC1  258   4.661   3.456   6.779 -0.0871  0.1164  0.0957
    3TYR    SC2  259   4.742   3.286   6.972 -0.1296  0.2512  0.2347
    3TYR    SC3  260   4.812   3.546   6.984 -0.1263  0.2594  0.0629
    1TYR     BB  261   5.834   3.318   5.174  0.3193 -0.2137  0.1480
    1TYR    SC1  262   5.982   3.235   4.925 -0.0504  0.2459  0.1150
    1TYR    SC2  263   5.908   3.346   4.690 -0.0147  0.1139  0.0400
    1TYR    SC3  264   6.053   3.118   4.692 -0.2480 -0.0397  0.1913
    2TRP     BB  265   5.977   3.474   5.415 -0.0258 -0.0980  0.0786
    2TRP    SC1  266   6.068   3.257   5.617  0.2747 -0.2403 -0.0761
    2TRP    SC2  267   6.106   3.097   5.831  0.1177 -0.1068  0.0554
    2TRP    SC3  268   6.210   3.346   5.829  0.3382 -0.1950 -0.1370
    2TRP    SC4  269   6.207   3.203   6.058  0.1873 -0.0108 -0.0196
    3TYR     BB  270   5.923   3.751   5.582 -0.1065 -0.0634  0.0517
    3TYR    SC1  271   6.053   3.960   5.408  0.2120 -0.0177  0.0254
    3TYR    SC2  272   6.062   4.197   5.279 -0.0906 -0.0313 -0.0298
    3TYR    SC3  273   6.264   4.020   5.250  0.1159  0.1956 -0.0266
    1TYR     BB  274   5.949   2.929   1.302  0.2032 -0.1763 -0.0260
    1TYR    SC1  275   6.047   3.196   1.432 -0.2067 -0.3287  0.0583
    1TYR    SC2  276   6.288   3.279   1.522 -0.1851 -0.3806  0.0488
    1TYR    SC3  277   6.073   3.286   1.685 -0.2105 -0.1863  0.0091
    2TRP     BB  278   5.643   2.753   1.271  0.3512 -0.2297 -0.5283
    2TRP    SC1  279   5.747   2.479   1.258  0.0241 -0.0162  0.0817
    2TRP    SC2  280   5.782   2.213   1.226 -0.0329 -0.0264  0.1023
    2TRP    SC3  281   5.554   2.307   1.335 -0.0806  0.0393 -0.0503
    2TRP    SC4  282   5.594   2.040   1.314 -0.1599  0.0279 -0.0581
    3TYR     BB  283   5.454   2.866   1.222 -0.1696  0.0473 -0.3426
    3TYR    SC1  284   5.202   2.989   1.332 -0.2760  0.0261 -0.0379
    3TYR    SC2  285   4.980   3.003   1.486 -0.3423  0.1766 -0.1437
    3TYR    SC3  286   5.104   3.230   1.406  0.1761  0.1032  0.3695
    1TYR     BB  287   6.458   2.801   1.433 -0.1644 -0.0169  0.0859
    1TYR    SC1  288   6.525   2.497   1.518  0.0136  0.0334 -0.0540
    1TYR    SC2  289   6.605   2.301   1.686  0.3761  0.1727 -0.0531
    1TYR    SC3  290   6.480   2.238   1.455  0.3092 -0.0453  0.0395
    2TRP     BB  291   6.697   2.955   1.341 -0.3101  0.1308 -0.0954
    2TRP    SC1  292   6.834   3.092   1.550 -0.1384  0.1762 -0.3070
    2TRP    SC2  293   6.942   3.158   1.789 -0.1411 -0.0174 -0.2497
    2TRP    SC3  294   6.673   3.152   1.759 -0.1453 -0.2249 -0.1864
    2TRP    SC4  295   6.781   3.191   2.003 -0.1150 -0.0326 -0.2279
    3TYR     BB  296   6.947   2.899   1.137  0.2095  0.2543  0.1859
    3TYR    SC1  297   7.213   2.819   1.228 -0.3193 -0.3639  0.3750
    3TYR    SC2  298   7.447   2.795   1.360 -0.1862 -0.0977  0.1998
    3TYR    SC3  299   7.399   2.643   1.142 -0.0116  0.1076  0.0130
    1TYR     BB  300   4.227   2.537   4.913 -0.0274  0.2412  0.0349
    1TYR    SC1  301   4.401   2.309   5.018 -0.2033 -0.3025 -0.3402
    1TYR    SC2  302   4.550   2.260   5.237 -0.4377  0.2478 -0.0304
    1TYR    SC3  303   4.593   2.119   5.010  0.0257 -0.1240  0.2621
    2TRP     BB  304   4.341   2.733   4.740 -0.2847 -0.3628 -0.1003
    2TRP    SC1  305   4.218   2.925   4.557 -0.1701 -0.1074  0.2148
    2TRP    SC2  306   4.206   3.151   4.410 -0.0461 -0.1655  0.1129
    2TRP    SC3  307   4.169   3.163   4.677 -0.1924 -0.0475  0.0895
    2TRP    SC4  308   4.189   3.391   4.534 -0.1226 -0.1100 -0.0021
    3TYR     BB  309   4.613   2.638   4.539 -0.0437 -0.1044  0.1932
    3TYR    SC1  310   4.816   2.456   4.697  0.0155 -0.0085  0.0209
    3TYR    SC2  311   4.927   2.210   4.687 -0.1283 -0.0751  0.0295
    3TYR    SC3  312   5.066   2.417   4.790  0.1381 -0.0706 -0.3185
    1TYR     BB  313   4.442   4.237   3.275  0.1476  0.0015  0.0170
    1TYR    SC1  314   4.148   4.260   3.171  0.0320 -0.0354 -0.0915
    1TYR    SC2  315   3.970   4.393   3.018  0.1006  0.1386 -0.0223
    1TYR    SC3  316   3.886   4.194   3.180  0.0312 -0.0707 -0.3055
    2TRP     BB  317   4.603   4.518   3.289  0.3233 -0.1228 -0.0144
    2TRP    SC1  318   4.820   4.445   3.054 -0.0482 -0.0264 -0.0887
    2TRP    SC2  319   5.068   4.383   2.967 -0.0024 -0.1179  0.0983
    2TRP    SC3  320   5.032   4.592   3.134  0.0042 -0.3203  0.3603
    2TRP    SC4  321   5.277   4.541   3.032 -0.0563 -0.0243  0.0461
    3TYR     BB  322   4.594   4.656   3.566 -0.0096 -0.1358 -0.2423
    3TYR    SC1  323   4.446   4.670   3.832 -0.0073  0.0977  0.3119
    3TYR    SC2  324   4.371   4.886   3.974  0.3658  0.2004  0.3674
    3TYR    SC3  325   4.446   4.661   4.102  0.1113  0.0794  0.3121
    1TYR     BB  326   4.024   2.801   4.133 -0.0123  0.0372 -0.3003
    1TYR    SC1  327   4.071   2.585   3.868 -0.2326 -0.0267  0.1796
    1TYR    SC2  328   4.028   2.638   3.607 -0.4652  0.0583  0.2320
    1TYR    SC3  329   4.126   2.398   3.682 -0.4631  0.0081  0.0729
    2TRP     BB  330   3.980   2.546   4.384 -0.0847 -0.0823 -0.0406
    2TRP    SC1  331   4.225   2.340   4.453 -0.2320 -0.1757 -0.2627
    2TRP    SC2  332   4.449   2.199   4.401 -0.2735 -0.2617 -0.2119
    2TRP    SC3  333   4.290   2.128   4.608 -0.1718  0.0024 -0.0370
    2TRP    SC4  334   4.516   1.989   4.558  0.0021  0.1613  0.2728
    3TYR     BB  335   3.810   2.530   4.556 -0.2694 -0.1201  0.0270
    3TYR    SC1  336   3.504   2.479   4.689 -0.3048  0.3020 -0.2632
    3TYR    SC2  337   3.240   2.483   4.631 -0.3240  0.1254 -0.1973
    3TYR    SC3  338   3.322   2.424   4.881 -0.2327  0.5772 -0.1093
    1TYR     BB  339   2.202   2.448   3.412  0.0595 -0.0572  0.2092
    1TYR    SC1  340   2.201   2.164   3.349  0.2701 -0.3140 -0.6072
    1TYR    SC2  341   2.030   2.015   3.201 -0.1764 -0.3789 -0.0666
    1TYR    SC3  342   2.112   1.926   3.443 -0.0281  0.0227  0.0400
    2TRP     BB  343   2.032   2.587   3.193 -0.0180 -0.3844  0.1298
    2TRP    SC1  344   2.092   2.465   2.935 -0.1213 -0.0168 -0.0671
    2TRP    SC2  345   2.157   2.297   2.735  0.2014  0.1788 -0.1366
    2TRP    SC3  346   2.336   2.351   2.930 -0.0209  0.1811  0.0732
    2TRP    SC4  347   2.398   2.175   2.733  0.2173  0.1994  0.1287
    3TYR     BB  348   1.933   2.922   3.297 -0.0860  0.2148 -0.0450
    3TYR    SC1  349   2.116   2.983   3.570 -0.1060 -0.1286 -0.1038
    3TYR    SC2  350   2.208   3.207   3.690  0.2401 -0.1686 -0.2794
    3TYR    SC3  351   2.127   2.997   3.839  0.0159  0.0278 -0.1148
    1TYR     BB  352   6.919   3.862   5.780  0.0717  0.0878 -0.3399
    1TYR    SC1  353   6.863   3.494   5.811 -0.2430  0.1204 -0.1011
    1TYR    SC2  354   6.712   3.305   5.930  0.0891  0.0958  0.3085
    1TYR    SC3  355   6.897   3.234   5.747 -0.2737  0.1120 -0.0839
    2TRP     BB  356   6.792   4.090   5.967  0.2444 -0.1904  0.0782
    2TRP    SC1  357   6.966   4.055   6.216 -0.2064  0.2172  0.2225
    2TRP    SC2  358   7.122   4.031   6.435  0.1314 -0.0772 -0.0362
    2TRP    SC3  359   6.935   3.844   6.381  0.2802 -0.1917 -0.1679
    2TRP    SC4  360   7.091   3.820   6.600 -0.1355  0.1265  0.1858
    3TYR     BB  361   6.678   4.376   5.946 -0.1408 -0.1021 -0.0394
    3TYR    SC1  362   6.404   4.420   5.869 -0.1802  0.1097  0.1020
    3TYR    SC2  363   6.247   4.310   5.679  0.1703  0.2011 -0.2574
    3TYR    SC3  364   6.153   4.512   5.832 -0.0664  0.2430 -0.4510
    1TYR     BB  365   5.372   2.682   6.436  0.0161  0.1749 -0.0464
    1TYR    SC1  366   5.381   2.410   6.528 -0.2288  0.0567  0.0406
    1TYR    SC2  367   5.239   2.194   6.605 -0.0071 -0.1188 -0.0309
    1TYR    SC3  368   5.509   2.180   6.590  0.0066  0.1502 -0.0819
    2TRP     BB  369   5.178   2.953   6.365  0.0525  0.1611 -0.1666
    2TRP    SC1  370   5.199   2.922   6.086 -0.3386  0.2013  0.0938
    2TRP    SC2  371   5.245   2.881   5.824  0.4161  0.0949  0.2157
    2TRP    SC3  372   5.178   2.674   5.983 -0.0545  0.1618  0.1207
    2TRP    SC4  373   5.260   2.628   5.730 -0.1307  0.0866  0.1088
    3TYR     BB  374   5.021   3.146   6.549 -0.1005 -0.0091 -0.0816
    3TYR    SC1  375   4.785   2.931   6.621 -0.1709 -0.0193 -0.1135
    3TYR    SC2  376   4.702   2.791   6.837  0.1614  0.1192  0.1141
    3TYR    SC3  377   4.559   2.784   6.608 -0.0106 -0.3146  0.2234
    1TYR     BB  378   5.216   2.503   7.916 -0.0904  0.2551  0.0887
    1TYR    SC1  379   5.015   2.280   7.890  0.2753  0.0550 -0.2920
    1TYR    SC2  380   4.906   2.079   7.747  0.0639  0.1232 -0.2323
    1TYR    SC3  381   4.754   2.218   7.921  0.2964  0.0932  0.0047
    2TRP     BB  382   5.527   2.471   8.035  0.0881 -0.0114  0.2284
    2TRP    SC1  383   5.668   2.734   8.011  0.2306  0.1571  0.0292
    2TRP    SC2  384   5.798   2.914   7.856  0.1831  0.1921  0.0292
    2TRP    SC3  385   5.532   2.936   7.892  0.1915  0.1757  0.1043
    2TRP    SC4  386   5.661   3.109   7.730  0.1165  0.1076 -0.0300
    3TYR     BB  387   5.636   2.252   7.922 -0.5116  0.1780 -0.0660
    3TYR    SC1  388   5.767   1.990   8.024  0.3564  0.1502  0.2894
    3TYR    SC2  389   5.777   1.816   8.231  0.0007 -0.1179  0.0959
    3TYR    SC3  390   5.866   1.741   7.987 -0.0599  0.0105  0.0334
    1TYR     BB  391   5.626   3.460   3.103  0.0888 -0.0895 -0.1589
    1TYR    SC1  392   5.938   3.370   3.172 -0.0443 -0.1153 -0.0168
    1TYR    SC2  393   6.134   3.351   3.357 -0.1216 -0.0562  0.0726
    1TYR    SC3  394   6.196   3.391   3.097 -0.0205  0.1789  0.1304
    2TRP     BB  395   5.530   3.694   3.021 -0.0054  0.3165 -0.0698
    2TRP    SC1  396   5.426   3.709   2.756 -0.1526 -0.1352  0.3207
    2TRP    SC2  397   5.386   3.763   2.495  0.3143 -0.0148  0.2635
    2TRP    SC3  398   5.307   3.526   2.598  0.0264 -0.0203  0.0445
    2TRP    SC4  399   5.269   3.579   2.336  0.0625  0.2796  0.0951
    3TYR     BB  400   5.537   3.969   3.133 -0.0611  0.0731 -0.1675
    3TYR    SC1  401   5.544   4.170   2.896 -0.2641  0.1567  0.1147
    3TYR    SC2  402   5.650   4.396   2.792 -0.1767  0.0660  0.0043
    3TYR    SC3  403   5.539   4.211   2.629 -0.1080 -0.0424  0.0782
    1TYR     BB  404   4.801   3.219   3.681 -0.2250  0.1932  0.0414
    1TYR    SC1  405   4.653   3.229   3.414 -0.0605 -0.1108 -0.2072
    1TYR    SC2  406   4.439   3.319   3.276 -0.0352 -0.2543 -0.3444
    1TYR    SC3  407   4.587   3.116   3.178 -0.1269 -0.4906 -0.0163
    2TRP     BB  408   5.075   3.048   3.593 -0.0445  0.0286  0.0942
    2TRP    SC1  409   4.977   2.841   3.426  0.0164  0.0793 -0.1937
    2TRP    SC2  410   4.818   2.703   3.256 -0.0643  0.0391 -0.0879
    2TRP    SC3  411   4.743   2.736   3.513  0.2601 -0.2851  0.0597
    2TRP    SC4  412   4.585   2.600   3.343  0.2075 -0.3839  0.1859
    3TYR     BB  413   5.289   2.950   3.866  0.1470  0.0091  0.0230
    3TYR    SC1  414   5.506   2.775   3.822  0.0107  0.0365 -0.0114
    3TYR    SC2  415   5.651   2.574   3.714 -0.0714 -0.0132 -0.0309
    3TYR    SC3  416   5.666   2.625   3.979 -0.2150 -0.1877  0.0133
    1TYR     BB  417   5.516   2.997   6.798 -0.0419 -0.0949  0.2212
    1TYR    SC1  418   5.785   2.964   6.955  0.2771  0.0326 -0.2178
    1TYR    SC2  419   5.945   3.059   7.151 -0.1467  0.0182  0.1556
    1TYR    SC3  420   5.982   2.808   7.056  0.1082  0.0503  0.1600
    2TRP     BB  421   5.342   2.701   6.966 -0.0280 -0.1279  0.4123
    2TRP    SC1  422   5.486   2.411   6.979 -0.1531  0.1147  0.0681
    2TRP    SC2  423   5.532   2.164   7.079 -0.2037  0.0688 -0.0210
    2TRP    SC3  424   5.282   2.238   7.008 -0.1917  0.1520  0.0213
    2TRP    SC4  425   5.327   1.992   7.110 -0.2294  0.0770 -0.1394
    3TYR     BB  426   5.106   2.727   7.012 -0.1657  0.1216 -0.0364
    3TYR    SC1  427   4.949   2.486   7.156  0.0448  0.3325  0.3759
    3TYR    SC2  428   4.699   2.395   7.107  0.0420  0.3793  0.3008
    3TYR    SC3  429   4.868   2.251   7.261  0.1509  0.0764 -0.0806
    1TYR     BB  430   0.016   2.708  -1.059 -0.2359  0.0324 -0.0116
    1TYR    SC1  431  -0.236   2.539  -1.187 -0.0915  0.0040 -0.1533
    1TYR    SC2  432  -0.391   2.371  -1.331  0.2982 -0.5361  0.0188
    1TYR    SC3  433  -0.347   2.323  -1.069  0.2842 -0.0493  0.1218
    2TRP     BB  434  -0.170   3.016  -1.057 -0.3666  0.0794  0.2012
    2TRP    SC1  435  -0.049   3.286  -0.964 -0.1636  0.3375  0.3416
    2TRP    SC2  436   0.037   3.540  -0.933  0.4159  0.2262 -0.1283
    2TRP    SC3  437   0.128   3.345  -0.769  0.3051  0.2514 -0.0351
    2TRP    SC4  438   0.227   3.595  -0.749  0.2580  0.2654  0.0260
    3TYR     BB  439  -0.404   3.047  -1.194 -0.0210  0.2406  0.2174
    3TYR    SC1  440  -0.431   3.291  -1.333  0.0149  0.1964  0.1446
    3TYR    SC2  441  -0.618   3.464  -1.423 -0.0305 -0.0583 -0.2828
    3TYR    SC3  442  -0.390   3.557  -1.312 -0.3307  0.2590  0.1028
    1TYR     BB  443   0.898   3.939  -0.368  0.1152  0.0037 -0.1218
    1TYR    SC1  444   0.710   4.069  -0.539  0.0847 -0.0910  0.0422
    1TYR    SC2  445   0.548   4.262  -0.637 -0.1684 -0.0577  0.4912
    1TYR    SC3  446   0.534   4.011  -0.735 -0.0787  0.0694  0.1367
    2TRP     BB  447   0.598   3.751  -0.184 -0.0363 -0.1823  0.0879
    2TRP    SC1  448   0.753   3.520  -0.113  0.0069 -0.0475  0.3487
    2TRP    SC2  449   0.913   3.306  -0.153  0.1390  0.0946  0.0736
    2TRP    SC3  450   1.019   3.539  -0.068  0.0105  0.0814  0.2800
    2TRP    SC4  451   1.178   3.325  -0.108  0.1166  0.1781  0.1773
    3TYR     BB  452   0.327   3.820  -0.285  0.1046 -0.2190  0.0963
    3TYR    SC1  453   0.129   4.016  -0.119  0.1729 -0.0131  0.0691
    3TYR    SC2  454  -0.130   4.072  -0.170  0.1442 -0.0896  0.1285
    3TYR    SC3  455   0.006   4.217   0.012  0.1132 -0.1164  0.1733
    1TYR     BB  456   3.389   3.375   4.078 -0.2874 -0.0576  0.1297
    1TYR    SC1  457   3.546   3.197   3.832  0.0949  0.2894 -0.2918
    1TYR    SC2  458   3.695   2.972   3.825 -0.0242  0.2064 -0.2097
    1TYR    SC3  459   3.722   3.158   3.631 -0.0592  0.0349 -0.3830
    2TRP     BB  460   3.107   3.493   4.024  0.0122 -0.0102  0.1507
    2TRP    SC1  461   3.019   3.765   4.202 -0.1898 -0.2903  0.1189
    2TRP    SC2  462   2.997   3.962   4.385 -0.1406 -0.1610 -0.0106
    2TRP    SC3  463   2.993   3.703   4.463 -0.1404 -0.1088  0.1689
    2TRP    SC4  464   2.963   3.900   4.646  0.1934  0.0286  0.0852
    3TYR     BB  465   2.898   3.451   3.890 -0.1311  0.4717  0.3024
    3TYR    SC1  466   2.578   3.504   4.007 -0.1501 -0.0604 -0.0289
    3TYR    SC2  467   2.345   3.553   3.880 -0.0077 -0.1262 -0.3281
    3TYR    SC3  468   2.349   3.397   4.101 -0.2974  0.2006 -0.0768
    1TYR     BB  469   6.529   4.096   6.390 -0.0795  0.1259 -0.0547
    1TYR    SC1  470   6.453   3.824   6.307  0.1011  0.1342 -0.0400
    1TYR    SC2  471   6.380   3.564   6.301 -0.2145  0.2171 -0.0655
    1TYR    SC3  472   6.559   3.659   6.122 -0.4222  0.1068 -0.3408
    2TRP     BB  473   6.557   4.121   6.668  0.1428  0.3592  0.0150
    2TRP    SC1  474   6.469   4.387   6.775  0.2028  0.3517  0.0093
    2TRP    SC2  475   6.342   4.587   6.905 -0.0929  0.0702  0.1711
    2TRP    SC3  476   6.507   4.422   7.040  0.0839  0.1492  0.0556
    2TRP    SC4  477   6.390   4.629   7.167  0.2490  0.2230  0.0908
    3TYR     BB  478   6.652   3.935   6.900  0.1187 -0.3257 -0.0171
    3TYR    SC1  479   6.700   3.629   6.812 -0.2076 -0.0243  0.1290
    3TYR    SC2  480   6.643   3.365   6.820  0.2409 -0.1416 -0.1143
    3TYR    SC3  481   6.752   3.473   6.598 -0.0501  0.2834 -0.0658
    1TYR     BB  482   6.757   3.927   1.098  0.4726 -0.0156  0.0027
    1TYR    SC1  483   6.740   3.656   1.249 -0.1356  0.0569  0.3007
    1TYR    SC2  484   6.640   3.491   1.439  0.0024 -0.3071  0.0714
    1TYR    SC3  485   6.633   3.418   1.179  0.1774  0.0015 -0.0272
    2TRP     BB  486   6.468   4.066   1.066  0.0381  0.4374  0.1487
    2TRP    SC1  487   6.304   3.804   1.166  0.0422  0.0247  0.2936
    2TRP    SC2  488   6.187   3.562   1.193  0.2095 -0.1442 -0.3031
    2TRP    SC3  489   6.064   3.757   1.052  0.0322  0.1718  0.2513
    2TRP    SC4  490   5.938   3.522   1.097  0.1386  0.0175 -0.1910
    3TYR     BB  491   6.428   4.331   0.883  0.0005 -0.2282  0.1072
    3TYR    SC1  492   6.188   4.507   0.874  0.3051 -0.0753  0.1854
    3TYR    SC2  493   6.112   4.766   0.865  0.1001 -0.1384 -0.0388
    3TYR    SC3  494   5.930   4.574   0.917  0.2344 -0.2469  0.0396
    1TYR     BB  495   7.554   3.358   1.470  0.2088  0.1871  0.2383
    1TYR    SC1  496   7.497   3.141   1.664 -0.1945 -0.0869  0.1708
    1TYR    SC2  497   7.561   2.910   1.788 -0.1470 -0.1129  0.0993
    1TYR    SC3  498   7.437   3.107   1.924  0.0746 -0.0659  0.2399
    2TRP     BB  499   7.780   3.542   1.366  0.0843  0.0502 -0.0261
    2TRP    SC1  500   7.977   3.398   1.192 -0.2299 -0.1452 -0.3324
    2TRP    SC2  501   8.207   3.266   1.141 -0.1139 -0.0807 -0.0033
    2TRP    SC3  502   7.980   3.128   1.192 -0.0900 -0.1474 -0.0761
    2TRP    SC4  503   8.218   2.999   1.186 -0.0822 -0.1278 -0.2714
    3TYR     BB  504   7.884   3.702   1.625 -0.0398  0.0813 -0.0170
    3TYR    SC1  505   8.158   3.865   1.696  0.1328 -0.1790  0.0304
    3TYR    SC2  506   8.307   4.053   1.572  0.0218 -0.2621 -0.2367
    3TYR    SC3  507   8.374   3.970   1.820  0.0120  0.2038 -0.0657
    1TYR     BB  508   4.733   5.098   3.749  0.0671 -0.1928 -0.0532
    1TYR    SC1  509   4.526   5.276   3.809  0.2774  0.0627 -0.0792
    1TYR    SC2  510   4.362   5.335   4.015  0.2134 -0.0785 -0.0887
    1TYR    SC3  511   4.364   5.492   3.796 -0.0855 -0.2031 -0.1882
    2TRP     BB  512   5.011   5.188   3.839 -0.0443  0.0364 -0.3111
    2TRP    SC1  513   4.902   5.468   3.963 -0.4222 -0.0971 -0.0128
    2TRP    SC2  514   4.795   5.716   3.976 -0.2797 -0.0305 -0.0891
    2TRP    SC3  515   4.926   5.637   3.753  0.1536  0.0260  0.1323
    2TRP    SC4  516   4.824   5.886   3.768  0.0294 -0.0125 -0.0381
    3TYR     BB  517   5.345   5.330   3.754  0.2701 -0.1127  0.0336
    3TYR    SC1  518   5.349   5.542   3.934  0.0535  0.1978 -0.2694
    3TYR    SC2  519   5.494   5.636   4.141 -0.1177 -0.3201  0.1107
    3TYR    SC3  520   5.281   5.775   4.052  0.3819  0.2858 -0.2417
    1TYR     BB  521   5.069   2.287   8.410  0.2992 -0.3139  0.1173
    1TYR    SC1  522   4.836   2.510   8.296  0.1239 -0.2458  0.2256
    1TYR    SC2  523   4.674   2.726   8.318  0.2136 -0.1757  0.2123
    1TYR    SC3  524   4.749   2.638   8.074  0.0687 -0.3062  0.2123
    2TRP     BB  525   5.184   2.485   8.632  0.1950 -0.1067  0.0448
    2TRP    SC1  526   4.922   2.654   8.763 -0.0909 -0.3609  0.0048
    2TRP    SC2  527   4.664   2.715   8.811 -0.0930 -0.3380 -0.0358
    2TRP    SC3  528   4.749   2.462   8.839 -0.0815 -0.3158  0.1446
    2TRP    SC4  529   4.492   2.524   8.892 -0.2264 -0.3831 -0.4018
    3TYR     BB  530   5.260   2.793   8.414 -0.0050  0.0754  0.0228
    3TYR    SC1  531   4.992   2.970   8.420 -0.1479  0.0622 -0.4178
    3TYR    SC2  532   4.763   3.113   8.422 -0.1317  0.1186  0.2400
    3TYR    SC3  533   4.890   3.059   8.654  0.4283 -0.0792 -0.0882
    1TYR     BB  534   5.777   3.745   3.492 -0.0056 -0.0375  0.1264
    1TYR    SC1  535   5.986   3.825   3.294  0.2105  0.2711  0.1343
    1TYR    SC2  536   6.104   3.888   3.059  0.1720  0.1033  0.0677
    1TYR    SC3  537   6.252   3.795   3.264  0.1752  0.0298  0.0323
    2TRP     BB  538   5.756   3.919   3.731 -0.1818  0.0396  0.0051
    2TRP    SC1  539   5.683   3.826   4.000 -0.0266 -0.0784  0.0154
    2TRP    SC2  540   5.656   3.768   4.262 -0.0517 -0.0122  0.0276
    2TRP    SC3  541   5.886   3.710   4.134 -0.0975 -0.1939  0.0244
    2TRP    SC4  542   5.873   3.689   4.403  0.0093  0.2225  0.0707
    3TYR     BB  543   5.697   4.205   3.601  0.0816 -0.0065 -0.0580
    3TYR    SC1  544   5.913   4.256   3.402  0.2516  0.1038 -0.0229
    3TYR    SC2  545   5.926   4.337   3.145  0.1284 -0.1348 -0.1083
    3TYR    SC3  546   6.153   4.286   3.281  0.1930 -0.0507 -0.1827
    1TYR     BB  547   0.974   2.484   1.203  0.2272  0.2148 -0.1629
    1TYR    SC1  548   0.942   2.304   1.410  0.1660 -0.1698  0.0296
    1TYR    SC2  549   0.803   2.267   1.638  0.3185 -0.0631  0.1422
    1TYR    SC3  550   1.033   2.133   1.598  0.4876  0.1926  0.2219
    2TRP     BB  551   1.158   2.787   1.268 -0.0401  0.1640 -0.0810
    2TRP    SC1  552   1.081   2.875   1.537  0.5467 -0.2792  0.0000
    2TRP    SC2  553   1.016   2.905   1.798 -0.3318  0.5022 -0.2404
    2TRP    SC3  554   0.883   2.726   1.645  0.0863  0.1441 -0.2084
    2TRP    SC4  555   0.846   2.728   1.913  0.1617  0.0207 -0.1952
    3TYR     BB  556   1.459   2.885   1.103 -0.0752 -0.0655 -0.0203
    3TYR    SC1  557   1.598   2.630   1.114 -0.0795 -0.1421  0.4149
    3TYR    SC2  558   1.548   2.393   0.996  0.0351 -0.0597  0.1950
    3TYR    SC3  559   1.780   2.431   1.128  0.2547  0.0860 -0.2098
    1TYR     BB  560   4.128   3.477   5.344  0.0918  0.1107 -0.1117
    1TYR    SC1  561   4.136   3.783   5.285  0.1027  0.0118 -0.2148
    1TYR    SC2  562   4.210   4.010   5.158  0.2064  0.0834 -0.0324
    1TYR    SC3  563   3.959   3.984   5.254  0.2636  0.2248  0.1619
    2TRP     BB  564   4.073   3.225   5.159 -0.2160 -0.3187 -0.3944
    2TRP    SC1  565   3.790   3.257   5.042 -0.0404  0.0317 -0.2259
    2TRP    SC2  566   3.525   3.305   5.033 -0.0248  0.2168  0.0892
    2TRP    SC3  567   3.628   3.158   5.234  0.1157  0.1571 -0.0240
    2TRP    SC4  568   3.362   3.201   5.222  0.0948  0.0781  0.1186
    3TYR     BB  569   4.256   2.985   5.165 -0.1033  0.3224  0.2236
    3TYR    SC1  570   4.268   2.763   5.398 -0.0729 -0.0208  0.1528
    3TYR    SC2  571   4.166   2.513   5.399  0.0639 -0.0779  0.1453
    3TYR    SC3  572   4.390   2.568   5.539  0.2019 -0.0312 -0.0876
    1TYR     BB  573   4.578   2.929  -0.383  0.1138  0.0885  0.2641
    1TYR    SC1  574   4.383   2.691  -0.434 -0.0235 -0.0105 -0.2187
    1TYR    SC2  575   4.114   2.705  -0.414  0.0129  0.2345  0.2963
    1TYR    SC3  576   4.241   2.470  -0.372 -0.1143  0.1149  0.0380
    2TRP     BB  577   4.885   2.921  -0.209 -0.0167  0.0005  0.2479
    2TRP    SC1  578   4.895   3.253  -0.210 -0.1141 -0.0796  0.0108
    2TRP    SC2  579   4.828   3.510  -0.163 -0.1977 -0.1018  0.0147
    2TRP    SC3  580   4.989   3.379   0.009  0.0991  0.0403 -0.1440
    2TRP    SC4  581   4.897   3.625   0.071 -0.1417 -0.0773 -0.0136
    3TYR     BB  582   4.897   2.637  -0.057  0.0755  0.4718 -0.1092
    3TYR    SC1  583   4.659   2.489  -0.041 -0.1410  0.1545  0.0422
    3TYR    SC2  584   4.528   2.254  -0.071  0.1817 -0.0345  0.0485
    3TYR    SC3  585   4.411   2.459   0.060 -0.2132 -0.0938 -0.1930
    1TYR     BB  586   6.872   5.123   7.171 -0.1018 -0.1988  0.0577
    1TYR    SC1  587   7.123   5.163   7.074  0.1149  0.1213  0.0205
    1TYR    SC2  588   7.315   5.314   6.960  0.2383 -0.2906 -0.3513
    1TYR    SC3  589   7.371   5.168   7.180  0.1220  0.1680  0.0021
    2TRP     BB  590   6.746   4.945   7.297  0.0186 -0.0936 -0.1896
    2TRP    SC1  591   6.458   5.038   7.375  0.1566  0.1176 -0.1425
    2TRP    SC2  592   6.207   5.037   7.475  0.1525  0.1977 -0.1515
    2TRP    SC3  593   6.417   5.083   7.638  0.1956 -0.2480 -0.0672
    2TRP    SC4  594   6.166   5.111   7.731  0.2136  0.0393 -0.0946
    3TYR     BB  595   6.894   4.676   7.336  0.1913 -0.0548 -0.1293
    3TYR    SC1  596   7.196   4.674   7.237 -0.1584 -0.1236  0.0689
    3TYR    SC2  597   7.428   4.604   7.356 -0.1457 -0.0152  0.1098
    3TYR    SC3  598   7.431   4.730   7.117 -0.1405  0.3511  0.2942
    1TYR     BB  599   5.681   2.559   2.057  0.1627 -0.2859  0.1515
    1TYR    SC1  600   5.490   2.415   2.198  0.1397  0.3384 -0.2323
    1TYR    SC2  601   5.294   2.230   2.187  0.1554  0.3001  0.0459
    1TYR    SC3  602   5.421   2.279   2.420  0.5966  0.2011 -0.1609
    2TRP     BB  603   5.579   2.747   1.754 -0.0067  0.0205 -0.0686
    2TRP    SC1  604   5.302   2.659   1.687  0.0394  0.2207  0.0041
    2TRP    SC2  605   5.103   2.533   1.554 -0.0955  0.3327  0.0966
    2TRP    SC3  606   5.273   2.391   1.709 -0.0924  0.2340  0.0041
    2TRP    SC4  607   5.066   2.267   1.587 -0.0551  0.2974 -0.1260
    3TYR     BB  608   5.615   3.026   1.715 -0.2073  0.0448  0.1317
    3TYR    SC1  609   5.623   3.267   1.551 -0.0891 -0.1604 -0.0239
    3TYR    SC2  610   5.649   3.535   1.525 -0.2632 -0.1482 -0.0934
    3TYR    SC3  611   5.597   3.382   1.308 -0.1385 -0.2431 -0.0586
    1TYR     BB  612   4.957   3.172   2.383 -0.1843 -0.1655 -0.0860
    1TYR    SC1  613   4.754   2.941   2.372 -0.0737  0.0408 -0.4250
    1TYR    SC2  614   4.511   2.873   2.276 -0.1215  0.0670 -0.3239
    1TYR    SC3  615   4.692   2.681   2.332  0.0214  0.0620 -0.7533
    2TRP     BB  616   4.948   3.167   2.027  0.1101  0.0157 -0.0033
    2TRP    SC1  617   4.818   2.924   1.909 -0.1364 -0.2037  0.3573
    2TRP    SC2  618   4.685   2.727   1.780 -0.0509 -0.1050  0.1094
    2TRP    SC3  619   4.566   2.965   1.822 -0.0585 -0.1182  0.1650
    2TRP    SC4  620   4.456   2.788   1.651  0.0857  0.0210 -0.0794
    3TYR     BB  621   5.220   3.186   1.902 -0.3509  0.0122  0.0451
    3TYR    SC1  622   5.252   3.428   1.766 -0.2320  0.0599 -0.0985
    3TYR    SC2  623   5.306   3.687   1.820 -0.0657 -0.0160  0.1177
    3TYR    SC3  624   5.184   3.620   1.589 -0.2170  0.2644  0.1107
    1TYR     BB  625   7.548   3.201   1.007  0.0723 -0.0854  0.0405
    1TYR    SC1  626   7.723   3.417   0.869 -0.0210 -0.2833 -0.0064
    1TYR    SC2  627   7.746   3.685   0.853 -0.0652 -0.2634  0.2294
    1TYR    SC3  628   7.758   3.536   0.629 -0.2978 -0.0452  0.0640
    2TRP     BB  629   7.265   3.142   0.824 -0.2015  0.2301 -0.1771
    2TRP    SC1  630   6.986   3.210   0.792  0.0038 -0.1309 -0.1329
    2TRP    SC2  631   6.720   3.168   0.798 -0.0191  0.0227  0.0103
    2TRP    SC3  632   6.855   3.146   0.565 -0.1338 -0.1844 -0.0398
    2TRP    SC4  633   6.590   3.093   0.573 -0.1725  0.0177  0.0987
    3TYR     BB  634   7.390   3.095   0.575 -0.3679  0.2139 -0.1253
    3TYR    SC1  635   7.251   3.253   0.345 -0.2431  0.1544  0.1036
    3TYR    SC2  636   7.106   3.474   0.295 -0.1447  0.1968  0.0005
    3TYR    SC3  637   7.194   3.322   0.090 -0.0155  0.1905  0.0601
    1TYR     BB  638   7.123   3.395   1.249  0.0712 -0.1178  0.0124
    1TYR    SC1  639   7.081   3.515   1.520  0.1180  0.1411 -0.0970
    1TYR    SC2  640   6.964   3.597   1.749  0.1995 -0.0725  0.0250
    1TYR    SC3  641   7.231   3.556   1.741  0.2670  0.3413 -0.2302
    2TRP     BB  642   7.243   3.618   1.036  0.3489  0.1102  0.1772
    2TRP    SC1  643   7.385   3.776   1.253  0.1207  0.0321  0.0167
    2TRP    SC2  644   7.468   3.893   1.482 -0.0048 -0.1963  0.1836
    2TRP    SC3  645   7.217   3.936   1.391  0.1674  0.2176 -0.1359
    2TRP    SC4  646   7.298   4.049   1.622  0.0187 -0.0529  0.0555
    3TYR     BB  647   7.250   3.663   0.730  0.2719 -0.0443  0.2272
    3TYR    SC1  648   7.103   3.865   0.617 -0.0463 -0.1565 -0.0254
    3TYR    SC2  649   6.894   4.035   0.629  0.0721  0.0059 -0.2030
    3TYR    SC3  650   6.952   3.909   0.398  0.1611 -0.0499 -0.1510
    1TYR     BB  651   3.568   2.503   3.455 -0.1463 -0.0909 -0.2183
    1TYR    SC1  652   3.486   2.323   3.253 -0.1517  0.1845  0.0031
    1TYR    SC2  653   3.368   2.268   3.017 -0.1105 -0.0274  0.0283
    1TYR    SC3  654   3.402   2.072   3.198 -0.0321  0.1073  0.1624
    2TRP     BB  655   3.497   2.790   3.364 -0.1086  0.1249 -0.2162
    2TRP    SC1  656   3.291   2.921   3.561  0.0180  0.0241  0.0164
    2TRP    SC2  657   3.114   3.035   3.730 -0.1105 -0.1856  0.0272
    2TRP    SC3  658   3.267   2.827   3.813 -0.1283 -0.2479 -0.0923
    2TRP    SC4  659   3.081   2.932   3.978  0.1584 -0.0553  0.1218
    3TYR     BB  660   3.653   2.936   3.176 -0.0646 -0.0639 -0.3603
    3TYR    SC1  661   3.992   2.943   3.207  0.2952  0.0917 -0.1075
    3TYR    SC2  662   4.249   2.859   3.193  0.1681 -0.2791 -0.5575
    3TYR    SC3  663   4.131   2.971   2.977 -0.0157  0.0231 -0.3112
    1TYR     BB  664   0.318   3.300  -0.316 -0.0106  0.0376  0.0499
    1TYR    SC1  665   0.558   3.365  -0.477 -0.3893 -0.0460 -0.4731
    1TYR    SC2  666   0.795   3.300  -0.588 -0.0756  0.0921  0.0685
    1TYR    SC3  667   0.702   3.553  -0.606 -0.0349  0.1096  0.1026
    2TRP     BB  668   0.287   3.118  -0.060  0.0310  0.0586  0.0105
    2TRP    SC1  669   0.541   2.977   0.040  0.0312  0.2148  0.0763
    2TRP    SC2  670   0.788   2.885   0.100 -0.0442 -0.0617 -0.0175
    2TRP    SC3  671   0.589   2.865   0.281  0.0295  0.2900  0.1114
    2TRP    SC4  672   0.827   2.747   0.329 -0.1015 -0.0259  0.0142
    3TYR     BB  673   0.077   3.131   0.124 -0.2886  0.0540 -0.0813
    3TYR    SC1  674   0.130   2.852   0.303  0.2261  0.1764  0.0729
    3TYR    SC2  675   0.210   2.621   0.419  0.1384  0.2687  0.3267
    3TYR    SC3  676  -0.052   2.662   0.366  0.2116  0.0452 -0.3289
    1TYR     BB  677   6.686   3.347   7.758  0.1926  0.0998 -0.2155
    1TYR    SC1  678   6.589   3.605   7.785 -0.0505  0.0130  0.3822
    1TYR    SC2  679   6.616   3.866   7.725  0.2037 -0.0975 -0.0362
    1TYR    SC3  680   6.373   3.766   7.784  0.0464  0.1691 -0.2057
    2TRP     BB  681   6.532   3.001   7.721  0.0128 -0.0511 -0.1159
    2TRP    SC1  682   6.811   2.917   7.640  0.0766 -0.0618 -0.2554
    2TRP    SC2  683   7.075   2.907   7.583  0.1335 -0.2822  0.0170
    2TRP    SC3  684   6.991   2.890   7.839 -0.1492 -0.2543 -0.0689
    2TRP    SC4  685   7.251   2.846   7.778 -0.0054  0.0689  0.2644
    3TYR     BB  686   6.251   2.836   7.649 -0.2383  0.0622  0.4807
    3TYR    SC1  687   6.293   2.595   7.465  0.0799 -0.2049 -0.0075
    3TYR    SC2  688   6.337   2.332   7.423 -0.0538 -0.1765 -0.3609
    3TYR    SC3  689   6.304   2.499   7.213  0.3692  0.1876 -0.1562
    1TYR     BB  690   0.129   2.799   0.835  0.0534 -0.2979  0.0653
    1TYR    SC1  691   0.315   3.021   0.711  0.0611  0.1910  0.3111
    1TYR    SC2  692   0.581   3.021   0.662  0.0319 -0.1210  0.1150
    1TYR    SC3  693   0.420   3.197   0.534  0.0889 -0.2451 -0.1356
    2TRP     BB  694   0.342   2.556   0.893  0.2023 -0.0175  0.2353
    2TRP    SC1  695   0.378   2.535   1.204 -0.5708 -0.4267  0.1468
    2TRP    SC2  696   0.493   2.642   1.423 -0.1475 -0.1128 -0.2055
    2TRP    SC3  697   0.240   2.709   1.356 -0.3304 -0.3111  0.2382
    2TRP    SC4  698   0.362   2.832   1.563  0.1202  0.1028 -0.2387
    3TYR     BB  699   0.641   2.493   0.681  0.2259  0.1836 -0.1846
    3TYR    SC1  700   0.927   2.598   0.729  0.0443  0.3583  0.0266
    3TYR    SC2  701   1.085   2.805   0.800  0.1924  0.3329 -0.2119
    3TYR    SC3  702   1.195   2.565   0.747  0.0135  0.1609  0.1547
    1TYR     BB  703   6.876   3.311   7.299  0.0379  0.2059  0.2019
    1TYR    SC1  704   6.646   3.120   7.233 -0.1040  0.0997  0.0460
    1TYR    SC2  705   6.589   2.859   7.270  0.0040  0.0570 -0.0787
    1TYR    SC3  706   6.397   3.028   7.184  0.0780 -0.1093 -0.6152
    2TRP     BB  707   6.818   3.623   7.276  0.3135  0.0609  0.2461
    2TRP    SC1  708   6.549   3.691   7.279  0.1434 -0.2649  0.3226
    2TRP    SC2  709   6.290   3.764   7.250  0.3036  0.2327 -0.0384
    2TRP    SC3  710   6.371   3.519   7.170  0.0287  0.2488 -0.3959
    2TRP    SC4  711   6.110   3.587   7.155  0.0695  0.4976 -0.1051
    3TYR     BB  712   7.007   3.771   7.488 -0.1054  0.0332  0.0929
    3TYR    SC1  713   7.295   3.693   7.394  0.2081  0.0504 -0.2090
    3TYR    SC2  714   7.528   3.571   7.457  0.0842 -0.2920 -0.3838
    3TYR    SC3  715   7.486   3.661   7.206  0.0979 -0.0557 -0.3046
    1TYR     BB  716   5.989   4.379   6.575 -0.1303  0.2891  0.0813
    1TYR    SC1  717   5.983   4.259   6.870  0.0113  0.1679  0.0533
    1TYR    SC2  718   6.146   4.074   6.982  0.0772  0.1405 -0.0855
    1TYR    SC3  719   6.082   4.298   7.118  0.1087  0.0806  0.0293
    2TRP     BB  720   5.843   4.233   6.386  0.1907 -0.1762 -0.2060
    2TRP    SC1  721   5.654   4.008   6.469  0.1362 -0.0558 -0.0273
    2TRP    SC2  722   5.496   3.819   6.579  0.0695 -0.0122 -0.0475
    2TRP    SC3  723   5.580   4.027   6.728 -0.1648  0.1403 -0.1203
    2TRP    SC4  724   5.417   3.841   6.836  0.2201 -0.1371  0.0111
    3TYR     BB  725   5.728   4.389   6.116 -0.4367 -0.0562 -0.0194
    3TYR    SC1  726   5.770   4.315   5.848 -0.0593 -0.0046  0.1388
    3TYR    SC2  727   5.714   4.173   5.625 -0.5526  0.3471  0.0196
    3TYR    SC3  728   5.784   4.433   5.606  0.3777  0.1559  0.2308
    1TYR     BB  729   2.381   3.340   2.560  0.1701  0.0397  0.0292
    1TYR    SC1  730   2.167   3.178   2.705 -0.4163 -0.0238 -0.0980
    1TYR    SC2  731   2.141   2.966   2.869 -0.1497  0.0938  0.1070
    1TYR    SC3  732   1.952   3.159   2.867 -0.3892 -0.1327 -0.0742
    2TRP     BB  733   2.512   3.227   2.280 -0.1571  0.1930 -0.1041
    2TRP    SC1  734   2.657   3.472   2.155  0.3788  0.0567  0.1639
    2TRP    SC2  735   2.866   3.561   2.010  0.1967 -0.1970 -0.2818
    2TRP    SC3  736   2.657   3.724   2.059  0.3172 -0.0684 -0.1822
    2TRP    SC4  737   2.865   3.812   1.911  0.2530 -0.2338 -0.3780
    3TYR     BB  738   2.676   2.931   2.177 -0.2592  0.1453 -0.0378
    3TYR    SC1  739   2.844   2.779   2.401  0.0060  0.1103 -0.3546
    3TYR    SC2  740   3.082   2.777   2.528  0.0246 -0.0120 -0.3903
    3TYR    SC3  741   2.992   2.553   2.406 -0.2476 -0.0579 -0.1209
    1TYR     BB  742   0.376   3.548   0.199  0.1312 -0.0966  0.2520
    1TYR    SC1  743   0.667   3.486   0.319 -0.0383 -0.0533  0.1949
    1TYR    SC2  744   0.836   3.276   0.331  0.0071 -0.0089  0.3647
    1TYR    SC3  745   0.931   3.527   0.357 -0.0255  0.0455  0.0109
    2TRP     BB  746   0.420   3.910   0.345  0.0635 -0.0279  0.1602
    2TRP    SC1  747   0.677   4.003   0.355  0.0100  0.0584  0.0670
    2TRP    SC2  748   0.931   3.996   0.446 -0.0165  0.0598  0.1422
    2TRP    SC3  749   0.882   3.976   0.181  0.0392 -0.3713  0.1541
    2TRP    SC4  750   1.135   3.959   0.273  0.0609  0.1215  0.2196
    3TYR     BB  751   0.100   4.091   0.507 -0.0149 -0.0128  0.3071
    3TYR    SC1  752  -0.111   3.886   0.387 -0.2245 -0.0101  0.1328
    3TYR    SC2  753  -0.137   3.655   0.248 -0.0050 -0.0204  0.1047
    3TYR    SC3  754  -0.286   3.870   0.182 -0.0686 -0.0948  0.0029
    1TYR     BB  755   0.338   2.491  -0.415  0.0287  0.3547  0.0335
    1TYR    SC1  756   0.586   2.673  -0.529 -0.0373  0.1408  0.0699
    1TYR    SC2  757   0.652   2.911  -0.421  0.0121  0.2231 -0.1365
    1TYR    SC3  758   0.766   2.831  -0.652 -0.2269  0.1350 -0.2275
    2TRP     BB  759   0.151   2.622  -0.119  0.1135  0.1048  0.2102
    2TRP    SC1  760   0.363   2.554   0.052  0.0849  0.2681  0.0585
    2TRP    SC2  761   0.533   2.424   0.217  0.0394  0.3033  0.1336
    2TRP    SC3  762   0.614   2.497  -0.030 -0.0372 -0.1740 -0.0458
    2TRP    SC4  763   0.785   2.370   0.136 -0.1443 -0.3510 -0.0691
    3TYR     BB  764  -0.202   2.535  -0.193 -0.3288 -0.2260 -0.2759
    3TYR    SC1  765  -0.167   2.343  -0.453 -0.4609 -0.2269 -0.3150
    3TYR    SC2  766  -0.074   2.331  -0.706  0.2048  0.0117 -0.1088
    3TYR    SC3  767   0.016   2.156  -0.520  0.1288  0.1695  0.0799
    1TYR     BB  768   8.149   3.915   1.168  0.0279 -0.0007 -0.0174
    1TYR    SC1  769   8.229   3.717   0.940 -0.1289 -0.1984  0.1143
    1TYR    SC2  770   8.168   3.513   0.774 -0.3161  0.0395 -0.1199
    1TYR    SC3  771   8.372   3.679   0.714 -0.1260 -0.1054  0.1003
    2TRP     BB  772   7.894   4.076   1.263  0.0229 -0.2081  0.1744
    2TRP    SC1  773   7.682   4.138   1.015 -0.1114  0.0781 -0.3185
    2TRP    SC2  774   7.447   4.067   0.901 -0.2698  0.1114 -0.0239
    2TRP    SC3  775   7.450   4.227   1.119 -0.0095 -0.3052  0.2976
    2TRP    SC4  776   7.216   4.167   0.998 -0.1273  0.1786  0.2615
    3TYR     BB  777   7.854   4.350   1.502 -0.0551 -0.3563 -0.1425
    3TYR    SC1  778   7.743   4.207   1.738  0.0802  0.2738 -0.0043
    3TYR    SC2  779   7.849   4.076   1.949 -0.4412 -0.1709  0.0107
    3TYR    SC3  780   7.620   4.216   1.978 -0.3180  0.0838 -0.1897
    1TYR     BB  781   6.190   2.873   8.125  0.1180 -0.0529  0.2335
    1TYR    SC1  782   6.194   3.065   8.374 -0.1536  0.4338 -0.0883
    1TYR    SC2  783   6.208   3.323   8.452 -0.0656  0.2793  0.4635
    1TYR    SC3  784   6.294   3.128   8.617  0.1757 -0.0941 -0.0692
    2TRP     BB  785   6.134   2.621   8.155 -0.0848 -0.1340 -0.0250
    2TRP    SC1  786   5.933   2.495   8.344  0.0341  0.1542  0.0044
    2TRP    SC2  787   5.703   2.462   8.480  0.0617  0.0700  0.0314
    2TRP    SC3  788   5.822   2.250   8.364  0.0746  0.1298 -0.0658
    2TRP    SC4  789   5.573   2.226   8.464  0.0959  0.0552 -0.0299
    3TYR     BB  790   6.104   2.455   7.912  0.1229 -0.0338  0.1535
    3TYR    SC1  791   6.224   2.170   7.996 -0.2511  0.0894 -0.0715
    3TYR    SC2  792   6.359   1.936   8.006  0.2020  0.3423  0.0534
    3TYR    SC3  793   6.231   2.028   8.226 -0.0758  0.1657 -0.0281
    1TYR     BB  794   0.473   4.795   0.420 -0.1478  0.1771 -0.1557
    1TYR    SC1  795   0.580   4.919   0.180 -0.1083 -0.0323  0.0847
    1TYR    SC2  796   0.539   5.087  -0.028 -0.2244 -0.2359 -0.0616
    1TYR    SC3  797   0.790   5.008   0.034 -0.1726 -0.0415 -0.0148
    2TRP     BB  798   0.281   4.529   0.370 -0.1164  0.0306 -0.0534
    2TRP    SC1  799   0.374   4.366   0.141  0.3796 -0.0275  0.2198
    2TRP    SC2  800   0.544   4.240  -0.026 -0.0335  0.1190 -0.3541
    2TRP    SC3  801   0.530   4.510  -0.026  0.2212  0.1524  0.2213
    2TRP    SC4  802   0.685   4.382  -0.207  0.1641  0.3899 -0.0031
    3TYR     BB  803  -0.031   4.674   0.343  0.0366 -0.0891 -0.1566
    3TYR    SC1  804  -0.085   5.014   0.332  0.0562  0.3623  0.3710
    3TYR    SC2  805   0.150   5.134   0.275  0.1040  0.0007 -0.3185
    3TYR    SC3  806  -0.073   5.202   0.139 -0.1428  0.1350  0.1283
    1TYR     BB  807   5.733   3.282   2.694  0.2095 -0.1293 -0.2867
    1TYR    SC1  808   5.984   3.127   2.770 -0.0559 -0.2553  0.1325
    1TYR    SC2  809   6.240   3.143   2.687 -0.1319  0.2144 -0.0496
    1TYR    SC3  810   6.165   2.946   2.855  0.2777 -0.1045 -0.2187
    2TRP     BB  811   5.953   3.582   2.732 -0.0821 -0.0890 -0.0260
    2TRP    SC1  812   5.816   3.838   2.594  0.0766 -0.0150  0.1558
    2TRP    SC2  813   5.882   4.015   2.402  0.0080 -0.0325  0.1155
    2TRP    SC3  814   5.977   4.046   2.653  0.0610  0.0161  0.0898
    2TRP    SC4  815   6.039   4.227   2.463 -0.1251  0.0764  0.0848
    3TYR     BB  816   6.279   3.639   2.700 -0.0932  0.0084 -0.3174
    3TYR    SC1  817   6.266   3.765   2.433 -0.1475  0.1066 -0.0521
    3TYR    SC2  818   6.171   3.795   2.182 -0.4879  0.2295  0.0832
    3TYR    SC3  819   6.355   3.968   2.278 -0.3274  0.1598 -0.0892
    1TYR     BB  820   5.917   4.135   0.719 -0.1349  0.0209 -0.2908
    1TYR    SC1  821   5.641   4.296   0.602 -0.0001  0.1195 -0.1036
    1TYR    SC2  822   5.395   4.400   0.569 -0.1120 -0.1064 -0.0107
    1TYR    SC3  823   5.608   4.564   0.595 -0.2312  0.0910 -0.2247
    2TRP     BB  824   6.149   4.045   0.586  0.0043 -0.0399 -0.1013
    2TRP    SC1  825   6.340   3.826   0.702  0.1147  0.2152 -0.2911
    2TRP    SC2  826   6.526   3.644   0.775  0.0068  0.2386  0.0683
    2TRP    SC3  827   6.556   3.784   0.546  0.1971 -0.0759 -0.1083
    2TRP    SC4  828   6.746   3.608   0.623 -0.0684 -0.2988  0.0610
    3TYR     BB  829   6.395   4.233   0.414 -0.1727 -0.3718 -0.0059
    3TYR    SC1  830   6.254   4.496   0.377 -0.1164 -0.3597  0.2431
    3TYR    SC2  831   5.990   4.537   0.416 -0.0534 -0.1169  0.4461
    3TYR    SC3  832   6.157   4.748   0.388  0.0805 -0.2677 -0.0019
    1TYR     BB  833   3.874   4.078   4.361 -0.0707  0.3143  0.0855
    1TYR    SC1  834   3.597   4.175   4.413 -0.0897 -0.2405 -0.0564
    1TYR    SC2  835   3.413   4.242   4.599 -0.0757  0.5952 -0.2925
    1TYR    SC3  836   3.343   4.227   4.338  0.1061  0.4651 -0.3360
    2TRP     BB  837   4.063   4.058   4.639 -0.1615 -0.2402 -0.0463
    2TRP    SC1  838   4.356   4.134   4.633 -0.0426 -0.0302  0.1320
    2TRP    SC2  839   4.608   4.097   4.722 -0.0898 -0.2887  0.1680
    2TRP    SC3  840   4.444   4.269   4.850  0.1778  0.1737 -0.0779
    2TRP    SC4  841   4.679   4.198   4.962  0.0957  0.0111 -0.0048
    3TYR     BB  842   3.966   3.744   4.756  0.0472 -0.1682  0.0923
    3TYR    SC1  843   3.714   3.806   4.928 -0.3552 -0.1349  0.0165
    3TYR    SC2  844   3.540   4.008   4.973 -0.3412 -0.0867 -0.1366
    3TYR    SC3  845   3.569   3.811   5.155 -0.1227  0.2131  0.1684
    1TYR     BB  846   2.075   2.252   2.234 -0.2737  0.2317 -0.0236
    1TYR    SC1  847   2.234   2.003   2.333  0.2645 -0.0705 -0.0864
    1TYR    SC2  848   2.437   1.829   2.363  0.2614 -0.0575  0.0140
    1TYR    SC3  849   2.192   1.740   2.291  0.1912 -0.1327  0.3287
    2TRP     BB  850   1.841   2.424   2.261  0.0286 -0.0472  0.1346
    2TRP    SC1  851   1.810   2.530   2.520 -0.3002  0.0111 -0.2480
    2TRP    SC2  852   1.839   2.727   2.702 -0.1176 -0.0768 -0.1785
    2TRP    SC3  853   1.596   2.616   2.660 -0.1434 -0.1367  0.0998
    2TRP    SC4  854   1.626   2.811   2.845  0.0548 -0.2700  0.2127
    3TYR     BB  855   1.674   2.634   2.061  0.4496 -0.0580 -0.0469
    3TYR    SC1  856   1.413   2.661   2.220 -0.2692 -0.2851 -0.2800
    3TYR    SC2  857   1.203   2.606   2.380 -0.1787  0.1001 -0.0109
    3TYR    SC3  858   1.191   2.812   2.208 -0.1575 -0.1193 -0.2855
    1TYR     BB  859   2.615   3.046   3.886  0.1522 -0.0027  0.0626
    1TYR    SC1  860   2.641   3.130   3.619  0.1418 -0.0638 -0.1708
    1TYR    SC2  861   2.623   3.370   3.496  0.1898 -0.0483 -0.1481
    1TYR    SC3  862   2.765   3.171   3.383  0.1917 -0.0502 -0.1425
    2TRP     BB  863   2.509   2.757   3.997 -0.1266 -0.1820 -0.3347
    2TRP    SC1  864   2.306   2.842   4.216  0.0356  0.2066 -0.0803
    2TRP    SC2  865   2.115   2.994   4.333  0.0927  0.3733 -0.1986
    2TRP    SC3  866   2.376   3.047   4.377  0.1293 -0.0965  0.2831
    2TRP    SC4  867   2.186   3.211   4.477  0.2374 -0.0395  0.3980
    3TYR     BB  868   2.454   2.552   3.814  0.1909  0.1490  0.1333
    3TYR    SC1  869   2.595   2.256   3.767 -0.2789 -0.2689  0.5693
    3TYR    SC2  870   2.649   2.029   3.630 -0.1199  0.0484  0.0699
    3TYR    SC3  871   2.765   2.074   3.870 -0.2085 -0.4163  0.2119
    1TYR     BB  872   6.534   2.697   8.533  0.0083  0.3352  0.1939
    1TYR    SC1  873   6.337   2.513   8.634 -0.1124  0.2119  0.0569
    1TYR    SC2  874   6.206   2.278   8.612  0.1955  0.0274  0.1252
    1TYR    SC3  875   6.175   2.430   8.833  0.0989 -0.0145  0.1409
    2TRP     BB  876   6.637   2.571   8.200  0.1042  0.1492 -0.0719
    2TRP    SC1  877   6.910   2.656   8.223 -0.0430 -0.6447 -0.0367
    2TRP    SC2  878   7.178   2.689   8.208 -0.0932  0.2538  0.2893
    2TRP    SC3  879   7.072   2.539   8.405  0.1574  0.0359  0.2652
    2TRP    SC4  880   7.337   2.531   8.358  0.1060  0.1049 -0.0642
    3TYR     BB  881   6.607   2.484   7.859 -0.1545  0.0015  0.0411
    3TYR    SC1  882   6.626   2.225   7.727  0.1969  0.0404  0.2312
    3TYR    SC2  883   6.601   1.995   7.587  0.0530  0.3788 -0.3391
    3TYR    SC3  884   6.844   2.074   7.675  0.0553 -0.1734  0.2415
    1TYR     BB  885   2.317   2.665   2.491  0.1358  0.1134 -0.1128
    1TYR    SC1  886   2.494   2.461   2.384  0.0921 -0.0034  0.2447
    1TYR    SC2  887   2.638   2.233   2.375 -0.1547 -0.1626  0.1978
    1TYR    SC3  888   2.607   2.382   2.152 -0.1248 -0.1675  0.1903
    2TRP     BB  889   2.147   2.805   2.257  0.2269 -0.0553 -0.2387
    2TRP    SC1  890   2.285   2.690   2.016  0.0906 -0.1404  0.1410
    2TRP    SC2  891   2.364   2.594   1.776  0.0345  0.2052 -0.0242
    2TRP    SC3  892   2.105   2.576   1.851  0.1154 -0.2485  0.1880
    2TRP    SC4  893   2.178   2.510   1.599 -0.0051  0.1683  0.0345
    3TYR     BB  894   1.952   2.978   2.271 -0.3028  0.1993  0.1507
    3TYR    SC1  895   1.754   3.067   2.454  0.2641 -0.2762 -0.0351
    3TYR    SC2  896   1.485   3.056   2.453  0.2492 -0.0137 -0.1973
    3TYR    SC3  897   1.613   3.211   2.634  0.2938 -0.1466 -0.1133
    1TYR     BB  898   2.667   3.806   3.002  0.3435 -0.0927  0.0165
    1TYR    SC1  899   2.568   3.802   2.719  0.1742 -0.1158 -0.3213
    1TYR    SC2  900   2.344   3.787   2.569 -0.0133  0.1471 -0.0803
    1TYR    SC3  901   2.572   3.887   2.463  0.0577 -0.3081 -0.3892
    2TRP     BB  902   2.857   3.593   3.040 -0.0555 -0.2763 -0.3013
    2TRP    SC1  903   2.809   3.349   2.854  0.2162 -0.1695 -0.1110
    2TRP    SC2  904   2.803   3.131   2.695 -0.0660 -0.1466 -0.1383
    2TRP    SC3  905   2.656   3.137   2.921 -0.1893  0.0734 -0.2198
    2TRP    SC4  906   2.609   2.948   2.734 -0.1334 -0.0668 -0.0946
    3TYR     BB  907   3.133   3.724   2.939 -0.0786  0.2562 -0.0683
    3TYR    SC1  908   3.094   3.676   2.628  0.1674 -0.1128  0.2491
    3TYR    SC2  909   2.873   3.592   2.498  0.3147 -0.3249  0.1280
    3TYR    SC3  910   3.032   3.779   2.386  0.2733 -0.2761  0.1501
    1TYR     BB  911   6.453   1.864   8.676 -0.0454 -0.1867  0.2565
    1TYR    SC1  912   6.156   1.839   8.694  0.1601  0.0256 -0.2756
    1TYR    SC2  913   5.967   1.757   8.868  0.3530 -0.2017 -0.1663
    1TYR    SC3  914   5.902   1.806   8.611  0.0754  0.0860 -0.0496
    2TRP     BB  915   6.665   2.156   8.431  0.1977 -0.1747 -0.0357
    2TRP    SC1  916   6.770   2.313   8.713  0.0347  0.0734  0.0552
    2TRP    SC2  917   6.905   2.380   8.937 -0.1933 -0.1679  0.2730
    2TRP    SC3  918   7.028   2.239   8.743  0.0033  0.0350  0.2438
    2TRP    SC4  919   7.170   2.327   8.955 -0.0471  0.4223  0.1241
    3TYR     BB  920   6.826   2.112   8.179 -0.1819 -0.2589 -0.1482
    3TYR    SC1  921   7.048   2.273   8.028 -0.1910 -0.1373 -0.3390
    3TYR    SC2  922   7.125   2.411   7.810  0.2982 -0.0553 -0.1309
    3TYR    SC3  923   7.301   2.250   7.936 -0.0911 -0.4176 -0.0221
    1TYR     BB  924   6.019   3.805   1.584  0.0710 -0.0761 -0.0014
    1TYR    SC1  925   5.904   4.018   1.723  0.0974  0.1123 -0.1623
    1TYR    SC2  926   5.885   4.147   1.959  0.0104  0.0982 -0.1610
    1TYR    SC3  927   5.770   4.252   1.738  0.0991  0.1156 -0.1991
    2TRP     BB  928   6.333   3.752   1.715 -0.4149 -0.0661  0.1668
    2TRP    SC1  929   6.509   3.946   1.536 -0.0385 -0.2051 -0.6654
    2TRP    SC2  930   6.633   4.183   1.501 -0.2409 -0.0031 -0.1354
    2TRP    SC3  931   6.773   3.969   1.586 -0.1225  0.0180 -0.2730
    2TRP    SC4  932   6.896   4.208   1.558 -0.2788  0.1347 -0.0105
    3TYR     BB  933   6.511   3.660   1.900  0.0120  0.1761  0.0774
    3TYR    SC1  934   6.346   3.385   2.017 -0.0708  0.2497 -0.0542
    3TYR    SC2  935   6.278   3.343   2.275  0.1675  0.1103 -0.0101
    3TYR    SC3  936   6.345   3.134   2.117  0.2268  0.2152 -0.1258
    1TYR     BB  937   4.800   2.859   5.567 -0.0548  0.0072 -0.1933
    1TYR    SC1  938   4.832   2.579   5.675  0.1533  0.0327  0.0484
    1TYR    SC2  939   4.880   2.313   5.666  0.8253  0.1145  0.3856
    1TYR    SC3  940   4.812   2.431   5.900  0.1973  0.2174  0.1768
    2TRP     BB  941   4.641   3.065   5.634 -0.0417  0.3126 -0.0652
    2TRP    SC1  942   4.733   3.277   5.823  0.1704  0.0032  0.0512
    2TRP    SC2  943   4.848   3.437   6.007  0.1116  0.2910 -0.1547
    2TRP    SC3  944   4.987   3.231   5.902  0.1283  0.0877  0.2432
    2TRP    SC4  945   5.096   3.381   6.098 -0.0765  0.1532  0.3102
    3TYR     BB  946   4.580   3.281   5.342  0.1821  0.1761 -0.0275
    3TYR    SC1  947   4.623   3.579   5.314 -0.0556 -0.0384  0.2107
    3TYR    SC2  948   4.666   3.829   5.222 -0.1625 -0.1355 -0.1213
    3TYR    SC3  949   4.576   3.791   5.474  0.6898  0.1194  0.2683
    1TYR     BB  950   1.925   3.559   2.416  0.2505 -0.0844 -0.1261
    1TYR    SC1  951   1.952   3.647   2.727  0.0204 -0.1852 -0.1389
    1TYR    SC2  952   1.903   3.586   2.986 -0.3127  0.3672 -0.0520
    1TYR    SC3  953   2.079   3.782   2.924 -0.1346  0.1492 -0.2590
    2TRP     BB  954   2.123   3.570   2.179  0.2473 -0.2730  0.3583
    2TRP    SC1  955   2.063   3.350   1.964  0.3831  0.3528 -0.0066
    2TRP    SC2  956   2.218   3.158   1.853 -0.0045  0.0531 -0.0533
    2TRP    SC3  957   2.086   3.332   1.695  0.0902  0.1535 -0.0233
    2TRP    SC4  958   2.247   3.146   1.585 -0.1365 -0.0242 -0.0657
    3TYR     BB  959   2.187   3.840   1.984  0.1147  0.1464  0.0689
    3TYR    SC1  960   2.343   3.721   1.748 -0.0025 -0.1239 -0.4808
    3TYR    SC2  961   2.470   3.559   1.574  0.3298 -0.0490 -0.3184
    3TYR    SC3  962   2.575   3.800   1.635  0.3095 -0.1364  0.0999
    1TYR     BB  963   4.744   5.074   4.249 -0.0149 -0.0346  0.2422
    1TYR    SC1  964   4.850   5.324   4.407 -0.1164 -0.0399 -0.0088
    1TYR    SC2  965   4.866   5.576   4.502 -0.3830  0.0166 -0.1030
    1TYR    SC3  966   5.065   5.477   4.348  0.0837 -0.0912  0.5172
    2TRP     BB  967   4.986   4.895   4.202  0.0511  0.5246 -0.2929
    2TRP    SC1  968   5.194   5.037   4.342  0.2545 -0.0074 -0.2143
    2TRP    SC2  969   5.407   5.180   4.427  0.1237  0.1173 -0.0888
    2TRP    SC3  970   5.410   5.064   4.183  0.3223  0.1425 -0.1000
    2TRP    SC4  971   5.633   5.184   4.279  0.3217 -0.0798  0.1966
    3TYR     BB  972   4.996   4.707   3.971 -0.1382  0.1445  0.1631
    3TYR    SC1  973   5.304   4.712   3.903 -0.2140 -0.1678 -0.0758
    3TYR    SC2  974   5.468   4.860   3.747 -0.1604  0.0761  0.1998
    3TYR    SC3  975   5.553   4.624   3.847 -0.0543  0.1018  0.1712
    1TYR     BB  976   4.671   3.596   3.935 -0.0991 -0.3585  0.0463
    1TYR    SC1  977   4.456   3.727   4.081  0.3659  0.0623  0.0835
    1TYR    SC2  978   4.329   3.955   4.151 -0.0375 -0.1019 -0.0741
    1TYR    SC3  979   4.316   3.738   4.311  0.5645  0.0439  0.2078
    2TRP     BB  980   4.738   3.951   3.781 -0.1332  0.4223  0.1043
    2TRP    SC1  981   4.995   3.969   3.939 -0.1619  0.3565 -0.0065
    2TRP    SC2  982   5.228   4.007   4.070  0.0252 -0.1015 -0.1835
    2TRP    SC3  983   5.161   4.168   3.864  0.0171  0.2421  0.0780
    2TRP    SC4  984   5.393   4.208   3.997  0.2418 -0.2568 -0.1349
    3TYR     BB  985   4.606   4.206   3.750  0.1812 -0.2043 -0.0346
    3TYR    SC1  986   4.293   4.280   3.804  0.0875  0.5858 -0.0188
    3TYR    SC2  987   4.034   4.215   3.760  0.1703  0.2190 -0.0006
    3TYR    SC3  988   4.104   4.344   3.986  0.0459 -0.0097  0.1735
    1TYR     BB  989   2.646   3.947   3.892  0.1736  0.1393  0.0613
    1TYR    SC1  990   2.553   3.976   4.144  0.0265 -0.0820 -0.0362
    1TYR    SC2  991   2.336   3.887   4.278  0.1270 -0.4572 -0.1056
    1TYR    SC3  992   2.487   4.087   4.381 -0.2702 -0.1537 -0.0801
    2TRP     BB  993   2.649   3.824   3.574 -0.1648 -0.0788  0.1744
    2TRP    SC1  994   2.968   3.805   3.504 -0.1570 -0.2968 -0.3239
    2TRP    SC2  995   3.213   3.882   3.422 -0.1013 -0.1845 -0.0635
    2TRP    SC3  996   2.995   4.019   3.342 -0.0307  0.0490  0.1270
    2TRP    SC4  997   3.238   4.080   3.240 -0.0343 -0.1295  0.0047
    3TYR     BB  998   2.301   3.816   3.420  0.0536  0.0163  0.0017
    3TYR    SC1  999   2.283   3.543   3.268 -0.3450 -0.0724  0.0879
    3TYR    SC2 1000   2.254   3.275   3.258 -0.1812 -0.0866 -0.1110
    3TYR    SC3 1001   2.383   3.404   3.059  0.6190  0.0229  0.4228
    1TYR     BB 1002   5.337   4.089   4.534  0.1778  0.0980 -0.1092
    1TYR    SC1 1003   5.235   4.191   4.801  0.0312 -0.0729  0.0995
    1TYR    SC2 1004   5.303   4.207   5.062 -0.1109  0.0155  0.1321
    1TYR    SC3 1005   5.083   4.336   4.971 -0.0603 -0.0117 -0.0323
    2TRP     BB 1006   5.653   4.155   4.558  0.1982 -0.1007 -0.2766
    2TRP    SC1 1007   5.763   4.231   4.271  0.2725  0.2357  0.2261
    2TRP    SC2 1008   5.894   4.384   4.091  0.1576  0.0244 -0.0464
    2TRP    SC3 1009   6.026   4.189   4.223  0.1486 -0.1116 -0.2340
    2TRP    SC4 1010   6.158   4.346   4.047  0.0622 -0.2598 -0.4361
    3TYR     BB 1011   5.826   4.226   4.794  0.1206  0.2673  0.0887
    3TYR    SC1 1012   5.971   3.957   4.879  0.3956  0.3104  0.1403
    3TYR    SC2 1013   6.047   3.717   4.978 -0.0828  0.0833 -0.0018
    3TYR    SC3 1014   6.128   3.793   4.732 -0.0414  0.0026 -0.0135
    1TYR     BB 1015   7.376   4.391   6.262  0.2683  0.4944 -0.2153
    1TYR    SC1 1016   7.554   4.583   6.147  0.1047 -0.0151  0.2617
    1TYR    SC2 1017   7.776   4.721   6.212  0.1359  0.0328  0.0619
    1TYR    SC3 1018   7.726   4.660   5.954  0.0217 -0.1596  0.1272
    2TRP     BB 1019   7.063   4.564   6.238  0.1870  0.4005  0.0320
    2TRP    SC1 1020   7.103   4.735   6.010 -0.2059  0.0458 -0.3160
    2TRP    SC2 1021   7.282   4.797   5.817  0.2277 -0.0652  0.0310
    2TRP    SC3 1022   7.265   4.949   6.039 -0.2646  0.0612 -0.0786
    2TRP    SC4 1023   7.458   4.998   5.856  0.0669  0.0377  0.2491
    3TYR     BB 1024   6.819   4.485   6.450  0.2375 -0.0948  0.2338
    3TYR    SC1 1025   6.542   4.623   6.386  0.0037 -0.0319 -0.0127
    3TYR    SC2 1026   6.314   4.737   6.476  0.0511 -0.1203  0.2314
    3TYR    SC3 1027   6.304   4.543   6.288 -0.0792 -0.1575  0.2751
    1TYR     BB 1028   2.820   2.873   4.456  0.1210 -0.0050  0.0551
    1TYR    SC1 1029   2.947   2.873   4.733 -0.0387  0.2315 -0.4415
    1TYR    SC2 1030   2.899   2.882   4.999 -0.2612 -0.1109 -0.4621
    1TYR    SC3 1031   3.153   2.873   4.908 -0.1853 -0.1217 -0.2564
    2TRP     BB 1032   2.896   3.181   4.353 -0.0345 -0.0892  0.0840
    2TRP    SC1 1033   2.648   3.334   4.450 -0.3812  0.0807 -0.0017
    2TRP    SC2 1034   2.563   3.567   4.555 -0.2659  0.0150  0.2474
    2TRP    SC3 1035   2.663   3.375   4.716  0.1015 -0.0159 -0.0028
    2TRP    SC4 1036   2.575   3.607   4.822 -0.0383 -0.1876  0.2721
    3TYR     BB 1037   3.209   3.229   4.474  0.1946  0.1050 -0.0622
    3TYR    SC1 1038   3.183   3.396   4.710  0.1942  0.1445 -0.0491
    3TYR    SC2 1039   3.196   3.553   4.929 -0.1765  0.1497 -0.0228
    3TYR    SC3 1040   3.053   3.324   4.935  0.0685 -0.0139 -0.1693
    1TYR     BB 1041   5.671   2.681   5.979  0.0445 -0.0602 -0.0366
    1TYR    SC1 1042   5.885   2.618   5.793  0.2011  0.3533  0.1204
    1TYR    SC2 1043   6.147   2.620   5.725  0.0806  0.1318 -0.4189
    1TYR    SC3 1044   6.001   2.394   5.696 -0.1212  0.1711  0.1380
    2TRP     BB 1045   5.712   2.997   6.132 -0.0806  0.0038 -0.1389
    2TRP    SC1 1046   5.579   3.149   5.947 -0.3335 -0.0840  0.1495
    2TRP    SC2 1047   5.416   3.299   5.793 -0.1909 -0.3423 -0.2759
    2TRP    SC3 1048   5.677   3.362   5.814 -0.2599 -0.1435  0.1076
    2TRP    SC4 1049   5.517   3.502   5.648 -0.1326 -0.2520 -0.1124
    3TYR     BB 1050   5.825   3.007   6.393  0.1364 -0.0143  0.0432
    3TYR    SC1 1051   6.045   3.171   6.526 -0.2323 -0.1437  0.1332
    3TYR    SC2 1052   6.139   3.174   6.779  0.0285 -0.1731  0.0407
    3TYR    SC3 1053   6.301   3.244   6.574 -0.1933 -0.1045 -0.1155
    1TYR     BB 1054   1.302   3.767   0.733 -0.0263 -0.0138  0.2514
    1TYR    SC1 1055   1.372   3.574   0.440  0.1953 -0.0528 -0.1755
    1TYR    SC2 1056   1.556   3.376   0.437  0.1605 -0.0850 -0.1895
    1TYR    SC3 1057   1.453   3.469   0.205  0.2275 -0.0030 -0.1869
    2TRP     BB 1058   1.257   4.050   0.870  0.2109  0.0925 -0.1155
    2TRP    SC1 1059   1.394   4.303   0.712  0.0804  0.3106  0.0084
    2TRP    SC2 1060   1.333   4.486   0.524 -0.4475 -0.1004 -0.2560
    2TRP    SC3 1061   1.463   4.259   0.455 -0.1006  0.0080  0.0048
    2TRP    SC4 1062   1.390   4.436   0.264  0.2059 -0.0244 -0.1501
    3TYR     BB 1063   0.982   4.075   0.988  0.3338 -0.1461  0.0757
    3TYR    SC1 1064   0.908   4.265   1.238 -0.1237 -0.2097  0.2496
    3TYR    SC2 1065   0.822   4.423   1.440 -0.0774  0.2878 -0.0981
    3TYR    SC3 1066   0.673   4.395   1.216 -0.0335 -0.0912 -0.0884
    1TYR     BB 1067   3.721   3.336   4.566  0.0825 -0.0254 -0.2657
    1TYR    SC1 1068   3.590   3.598   4.515 -0.0974  0.4243  0.1165
    1TYR    SC2 1069   3.502   3.761   4.319 -0.2228 -0.1439 -0.3337
    1TYR    SC3 1070   3.401   3.783   4.568 -0.3577  0.3373 -0.4186
    2TRP     BB 1071   3.671   3.069   4.484  0.1135 -0.0424 -0.0698
    2TRP    SC1 1072   3.612   2.908   4.757  0.0288  0.0133  0.0397
    2TRP    SC2 1073   3.614   2.796   5.002  0.2407  0.2625  0.1576
    2TRP    SC3 1074   3.844   2.887   4.893  0.1024  0.4263 -0.0048
    2TRP    SC4 1075   3.846   2.777   5.140  0.3644  0.3624 -0.0320
    3TYR     BB 1076   3.516   2.903   4.272  0.1100  0.2153  0.0396
    3TYR    SC1 1077   3.518   2.635   4.140  0.3515  0.4141 -0.3488
    3TYR    SC2 1078   3.646   2.491   3.951  0.1847  0.1031 -0.2340
    3TYR    SC3 1079   3.501   2.366   4.141 -0.2436  0.4363 -0.3203
    1TYR     BB 1080   7.110   4.917   8.294  0.1816  0.0657 -0.1572
    1TYR    SC1 1081   6.881   5.066   8.132 -0.0805 -0.0054  0.1347
    1TYR    SC2 1082   6.635   5.058   8.020 -0.0180  0.2171 -0.0275
    1TYR    SC3 1083   6.741   5.294   8.097  0.0691  0.1016  0.2206
    2TRP     BB 1084   7.256   4.638   8.357 -0.1885  0.2830 -0.2722
    2TRP    SC1 1085   7.327   4.641   8.660  0.2539 -0.0514  0.0870
    2TRP    SC2 1086   7.378   4.682   8.921  0.1067  0.0614  0.1002
    2TRP    SC3 1087   7.207   4.845   8.791 -0.2055 -0.2868  0.0565
    2TRP    SC4 1088   7.270   4.894   9.049 -0.0517  0.0690 -0.0428
    3TYR     BB 1089   7.264   4.349   8.174  0.2177 -0.2319  0.0563
    3TYR    SC1 1090   7.215   4.335   7.868 -0.0465 -0.0803  0.0604
    3TYR    SC2 1091   6.992   4.239   7.752  0.0729 -0.1062 -0.1542
    3TYR    SC3 1092   7.202   4.312   7.599  0.1974 -0.0451  0.0427
    1TYR     BB 1093   3.065   2.779   3.059  0.1099 -0.1934 -0.1509
    1TYR    SC1 1094   2.946   2.523   2.859 -0.3455 -0.0539 -0.1647
    1TYR    SC2 1095   2.723   2.442   2.731 -0.2087 -0.3057 -0.2527
    1TYR    SC3 1096   2.933   2.274   2.755 -0.1390 -0.1798  0.0949
    2TRP     BB 1097   3.217   3.070   2.924  0.0873 -0.0291 -0.2571
    2TRP    SC1 1098   3.152   3.238   3.194  0.0789 -0.2010 -0.0756
    2TRP    SC2 1099   3.148   3.369   3.430 -0.0072  0.0078 -0.1894
    2TRP    SC3 1100   3.375   3.359   3.284  0.0097 -0.0043 -0.1625
    2TRP    SC4 1101   3.372   3.488   3.521 -0.0572  0.1445 -0.2426
    3TYR     BB 1102   3.384   3.311   2.790  0.0540  0.2814  0.2442
    3TYR    SC1 1103   3.257   3.250   2.479 -0.2938  0.1970  0.1127
    3TYR    SC2 1104   3.079   3.129   2.315 -0.1574  0.0419  0.0756
    3TYR    SC3 1105   3.213   3.348   2.231  0.2977 -0.3326 -0.2390
    1TYR     BB 1106   3.728   3.836   3.461  0.2584 -0.2085  0.0242
    1TYR    SC1 1107   3.830   3.567   3.428 -0.0776  0.0917  0.0219
    1TYR    SC2 1108   4.024   3.385   3.380  0.1267  0.3118 -0.0074
    1TYR    SC3 1109   3.801   3.387   3.229 -0.1015 -0.2122  0.2896
    2TRP     BB 1110   3.626   3.881   3.782  0.0209 -0.2010 -0.0350
    2TRP    SC1 1111   3.868   3.755   3.934  0.2678 -0.1985 -0.2138
    2TRP    SC2 1112   3.902   3.583   4.139  0.3153 -0.1435 -0.1750
    2TRP    SC3 1113   3.870   3.489   3.888 -0.3351 -0.2432 -0.0772
    2TRP    SC4 1114   3.902   3.317   4.094 -0.0056 -0.1690 -0.0593
    3TYR     BB 1115   3.373   3.982   3.888 -0.0404 -0.3288  0.0481
    3TYR    SC1 1116   3.184   4.225   3.783  0.3420  0.2942  0.0188
    3TYR    SC2 1117   2.934   4.303   3.718  0.3522  0.2233 -0.1077
    3TYR    SC3 1118   3.012   4.303   3.976  0.0430 -0.2632  0.0017
    1TYR     BB 1119   5.287   2.324   7.467 -0.0079  0.0650 -0.3028
    1TYR    SC1 1120   5.438   2.039   7.569 -0.3126 -0.0426  0.0076
    1TYR    SC2 1121   5.650   1.872   7.594 -0.1478  0.2010  0.3207
    1TYR    SC3 1122   5.413   1.805   7.703 -0.0291  0.2480  0.6218
    2TRP     BB 1123   5.456   2.481   7.469 -0.1829  0.0494 -0.1638
    2TRP    SC1 1124   5.340   2.799   7.496 -0.0588 -0.2217  0.1135
    2TRP    SC2 1125   5.335   3.066   7.469 -0.4615 -0.2429 -0.1148
    2TRP    SC3 1126   5.525   2.923   7.343 -0.0499 -0.0546  0.2561
    2TRP    SC4 1127   5.520   3.191   7.317 -0.5103 -0.0783 -0.0427
    3TYR     BB 1128   5.824   2.497   7.452 -0.1982 -0.0238 -0.1572
    3TYR    SC1 1129   5.899   2.232   7.476 -0.1151 -0.2776 -0.2152
    3TYR    SC2 1130   6.052   2.035   7.578  0.1494 -0.1769 -0.4040
    3TYR    SC3 1131   5.940   2.007   7.334 -0.0490 -0.2056 -0.3123
    1TYR     BB 1132   5.546   3.719   4.743  0.0350 -0.0864 -0.4694
    1TYR    SC1 1133   5.607   3.821   5.016 -0.0061  0.1290 -0.1383
    1TYR    SC2 1134   5.653   3.937   5.255  0.0015 -0.0518 -0.0506
    1TYR    SC3 1135   5.469   3.740   5.233  0.1342 -0.1667 -0.1530
    2TRP     BB 1136   5.361   3.511   4.669  0.1033  0.1287  0.1758
    2TRP    SC1 1137   5.243   3.393   4.402 -0.2463  0.1640 -0.2414
    2TRP    SC2 1138   5.131   3.323   4.167 -0.2853  0.2913 -0.2618
    2TRP    SC3 1139   5.324   3.511   4.173 -0.1660  0.1690 -0.2107
    2TRP    SC4 1140   5.231   3.422   3.936  0.4523 -0.3809 -0.2832
    3TYR     BB 1141   5.449   3.259   4.955  0.2793 -0.3038  0.2581
    3TYR    SC1 1142   5.512   2.963   4.902 -0.2434 -0.0211 -0.1346
    3TYR    SC2 1143   5.468   2.710   4.985  0.1736 -0.1155 -0.1710
    3TYR    SC3 1144   5.720   2.807   4.977 -0.0013  0.4172  0.1623
    1TYR     BB 1145   6.390   4.713   1.312  0.1670 -0.1532  0.3080
    1TYR    SC1 1146   6.665   4.628   1.224  0.2534  0.0388  0.0069
    1TYR    SC2 1147   6.908   4.582   1.331  0.1585  0.0888  0.2552
    1TYR    SC3 1148   6.865   4.539   1.068  0.3951 -0.0578  0.2368
    2TRP     BB 1149   6.196   4.370   1.339  0.0566  0.3877  0.2147
    2TRP    SC1 1150   6.241   4.328   1.616  0.2117  0.3109 -0.3283
    2TRP    SC2 1151   6.309   4.259   1.868  0.1641 -0.0878 -0.4154
    2TRP    SC3 1152   6.173   4.488   1.823 -0.1445 -0.1817 -0.0343
    2TRP    SC4 1153   6.229   4.412   2.076  0.3473 -0.3153 -0.1686
    3TYR     BB 1154   6.002   4.172   1.266 -0.0550 -0.0843 -0.2674
    3TYR    SC1 1155   5.734   4.305   1.170  0.1416  0.0776  0.2015
    3TYR    SC2 1156   5.529   4.381   1.012 -0.0203 -0.0753  0.3329
    3TYR    SC3 1157   5.499   4.380   1.280  0.2509  0.1810  0.3705
    1TYR     BB 1158   4.690   2.715   5.102  0.2060 -0.1910  0.0310
    1TYR    SC1 1159   4.907   2.542   5.207 -0.0148  0.1117 -0.0743
    1TYR    SC2 1160   5.163   2.534   5.290 -0.0009 -0.2819 -0.1294
    1TYR    SC3 1161   5.028   2.304   5.248 -0.2718 -0.0853 -0.3890
    2TRP     BB 1162   4.798   2.960   5.020 -0.0179  0.4547 -0.3794
    2TRP    SC1 1163   5.080   2.943   4.893  0.4401  0.2660  0.3106
    2TRP    SC2 1164   5.184   2.826   4.674  0.1037 -0.1674  0.3661
    2TRP    SC3 1165   5.046   3.057   4.651  0.0194 -0.2385  0.1092
    2TRP    SC4 1166   5.172   2.953   4.436  0.0848 -0.4153  0.2297
    3TYR     BB 1167   4.615   3.142   4.850 -0.2523  0.1114 -0.3294
    3TYR    SC1 1168   4.490   3.384   4.843 -0.0734 -0.2212  0.1028
    3TYR    SC2 1169   4.351   3.590   4.948  0.2747 -0.0050  0.1608
    3TYR    SC3 1170   4.500   3.627   4.726  0.2634 -0.2237  0.1135
    1TYR     BB 1171   5.563   2.362   2.968  0.4868 -0.0437  0.2629
    1TYR    SC1 1172   5.783   2.289   2.745  0.0910 -0.3571 -0.1831
    1TYR    SC2 1173   6.040   2.368   2.723  0.0062 -0.0230 -0.0523
    1TYR    SC3 1174   5.880   2.366   2.505  0.0925 -0.1460 -0.1166
    2TRP     BB 1175   5.263   2.484   3.037  0.0771  0.1000  0.1148
    2TRP    SC1 1176   5.136   2.360   3.293  0.2434 -0.3429  0.0892
    2TRP    SC2 1177   4.965   2.353   3.502 -0.0378 -0.0937 -0.1222
    2TRP    SC3 1178   5.196   2.493   3.521 -0.2330  0.2399 -0.0902
    2TRP    SC4 1179   5.020   2.493   3.726 -0.2723  0.0029 -0.1203
    3TYR     BB 1180   5.059   2.495   2.830  0.0547 -0.0875  0.2544
    3TYR    SC1 1181   4.875   2.726   2.766 -0.2612 -0.1738 -0.1205
    3TYR    SC2 1182   4.803   2.981   2.820 -0.1105 -0.1178 -0.1786
    3TYR    SC3 1183   4.626   2.780   2.857 -0.2779  0.0104 -0.2677
    1TYR     BB 1184   0.551   4.199   0.750 -0.1707 -0.2150  0.1547
    1TYR    SC1 1185   0.357   4.437   0.838 -0.1673  0.3190  0.2419
    1TYR    SC2 1186   0.103   4.521   0.805 -0.3492 -0.2044  0.1834
    1TYR    SC3 1187   0.244   4.601   1.020 -0.5133  0.1863  0.1575
    2TRP     BB 1188   0.789   4.401   0.656 -0.0862  0.2812 -0.1406
    2TRP    SC1 1189   0.831   4.428   0.323 -0.2943  0.0104 -0.0740
    2TRP    SC2 1190   0.970   4.402   0.093 -0.1468  0.0647  0.0079
    2TRP    SC3 1191   0.950   4.644   0.212  0.1787 -0.0384  0.2970
    2TRP    SC4 1192   1.061   4.623  -0.033 -0.5174  0.1796 -0.0726
    3TYR     BB 1193   0.938   4.547   0.792  0.0277  0.0068  0.0220
    3TYR    SC1 1194   1.127   4.567   1.027 -0.2591 -0.1358 -0.0518
    3TYR    SC2 1195   1.327   4.429   1.147  0.0447  0.1851 -0.1671
    3TYR    SC3 1196   1.213   4.640   1.272  0.0822  0.2716 -0.2770
    1TYR     BB 1197   4.293   2.431   6.149 -0.0636  0.0020 -0.0647
    1TYR    SC1 1198   4.472   2.351   6.389  0.3631 -0.2244 -0.0128
    1TYR    SC2 1199   4.579   2.359   6.637 -0.0311 -0.1751  0.1647
    1TYR    SC3 1200   4.524   2.122   6.523  0.1206 -0.1972  0.1343
    2TRP     BB 1201   4.447   2.766   6.015  0.0335  0.1263 -0.2744
    2TRP    SC1 1202   4.180   2.872   5.856 -0.4396 -0.0578  0.0975
    2TRP    SC2 1203   3.963   2.768   5.732 -0.1651 -0.1210 -0.3587
    2TRP    SC3 1204   4.063   3.007   5.653  0.0518 -0.1896 -0.3008
    2TRP    SC4 1205   3.832   2.916   5.548 -0.0607  0.0677 -0.2858
    3TYR     BB 1206   4.716   2.868   6.137 -0.1206  0.0162  0.1200
    3TYR    SC1 1207   4.817   2.628   6.292 -0.0743 -0.0237 -0.2417
    3TYR    SC2 1208   4.905   2.373   6.304 -0.2553 -0.0767  0.1384
    3TYR    SC3 1209   4.928   2.535   6.520 -0.0872  0.2546 -0.1150
    1TYR     BB 1210   1.646   3.310   1.405 -0.3441 -0.0108  0.0681
    1TYR    SC1 1211   1.736   3.299   1.119  0.1788 -0.0308 -0.0786
    1TYR    SC2 1212   1.848   3.446   0.922 -0.1970  0.3349 -0.0361
    1TYR    SC3 1213   1.602   3.340   0.888 -0.1642  0.1928  0.1493
    2TRP     BB 1214   1.358   3.270   1.463  0.1915 -0.3897  0.1733
    2TRP    SC1 1215   1.311   3.486   1.686 -0.1258  0.2091 -0.2561
    2TRP    SC2 1216   1.237   3.627   1.904 -0.0653 -0.1934  0.0392
    2TRP    SC3 1217   1.064   3.453   1.789 -0.1117  0.0453 -0.2706
    2TRP    SC4 1218   0.984   3.607   1.997 -0.0811 -0.2667 -0.0181
    3TYR     BB 1219   1.080   3.247   1.224  0.2140  0.2285  0.0269
    3TYR    SC1 1220   1.053   3.322   0.976 -0.3387  0.1213 -0.0173
    3TYR    SC2 1221   1.212   3.271   0.763 -0.1179 -0.2669  0.2249
    3TYR    SC3 1222   0.945   3.289   0.730 -0.0533  0.2874 -0.1720
    1TYR     BB 1223   5.604   3.824   0.898 -0.0101 -0.2334  0.2368
    1TYR    SC1 1224   5.579   3.836   1.195 -0.0074  0.2167  0.4023
    1TYR    SC2 1225   5.329   3.844   1.296 -0.2082  0.2209 -0.0632
    1TYR    SC3 1226   5.533   3.961   1.430 -0.4071  0.0375  0.4281
    2TRP     BB 1227   5.493   3.541   0.766 -0.0656  0.1694 -0.0728
    2TRP    SC1 1228   5.743   3.353   0.719 -0.0225 -0.1176  0.0562
    2TRP    SC2 1229   5.757   3.100   0.626  0.2371 -0.1226  0.0998
    2TRP    SC3 1230   5.778   3.148   0.891 -0.0793 -0.0730  0.1219
    2TRP    SC4 1231   5.746   2.895   0.802 -0.4037 -0.0533  0.1705
    3TYR     BB 1232   5.299   3.341   0.940  0.2035  0.2067 -0.0976
    3TYR    SC1 1233   5.060   3.519   1.032 -0.0638 -0.1991  0.0345
    3TYR    SC2 1234   4.918   3.676   1.199  0.1342  0.1433 -0.1057
    3TYR    SC3 1235   4.794   3.481   1.059 -0.0875  0.0561  0.1996
    1TYR     BB 1236   4.516   4.060   2.826 -0.0197  0.3237 -0.1578
    1TYR    SC1 1237   4.325   3.838   2.947  0.0148 -0.0309 -0.0306
    1TYR    SC2 1238   4.150   3.800   3.149  0.1538  0.0927  0.1153
    1TYR    SC3 1239   4.235   3.589   3.004  0.0221  0.0082  0.1589
    2TRP     BB 1240   4.536   4.331   2.669  0.1096 -0.0783 -0.3021
    2TRP    SC1 1241   4.387   4.522   2.847 -0.2095  0.0882  0.0070
    2TRP    SC2 1242   4.273   4.688   3.028 -0.4390 -0.1353  0.0753
    2TRP    SC3 1243   4.214   4.714   2.765 -0.3358  0.0002  0.0640
    2TRP    SC4 1244   4.149   4.910   2.939 -0.0037  0.1176  0.0644
    3TYR     BB 1245   4.716   4.362   2.487  0.0377  0.3422 -0.1951
    3TYR    SC1 1246   4.968   4.525   2.463 -0.1341 -0.1167 -0.3192
    3TYR    SC2 1247   5.086   4.727   2.328  0.2223 -0.1660 -0.0998
    3TYR    SC3 1248   5.237   4.551   2.467 -0.1068 -0.3534  0.0359
    1TYR     BB 1249   5.329   3.653  -0.281 -0.1068  0.1102 -0.1490
    1TYR    SC1 1250   5.210   3.480  -0.494 -0.1770  0.2316 -0.2279
    1TYR    SC2 1251   5.170   3.224  -0.568 -0.4257  0.1578  0.1283
    1TYR    SC3 1252   5.217   3.412  -0.755 -0.0913 -0.1635 -0.1311
    2TRP     BB 1253   5.646   3.738  -0.213  0.0969  0.0895 -0.0626
    2TRP    SC1 1254   5.800   3.478  -0.062 -0.0687  0.0644 -0.1168
    2TRP    SC2 1255   5.995   3.302  -0.125 -0.0177  0.1365 -0.1617
    2TRP    SC3 1256   6.059   3.550  -0.040 -0.0881  0.1029 -0.0064
    2TRP    SC4 1257   6.252   3.365  -0.075 -0.0588  0.1135  0.0943
    3TYR     BB 1258   5.746   3.890  -0.361 -0.3847  0.2477  0.0065
    3TYR    SC1 1259   5.602   4.174  -0.456  0.0112  0.0983  0.1113
    3TYR    SC2 1260   5.361   4.225  -0.567 -0.0089  0.2216  0.2089
    3TYR    SC3 1261   5.546   4.421  -0.550  0.0868  0.1361  0.1648
    1TYR     BB 1262   7.207   4.441   6.746 -0.0660 -0.1866 -0.0197
    1TYR    SC1 1263   7.145   4.239   6.944 -0.3118 -0.2651  0.0122
    1TYR    SC2 1264   7.085   4.205   7.205 -0.2773 -0.1062  0.0422
    1TYR    SC3 1265   7.118   3.990   7.044  0.1942 -0.2283  0.2799
    2TRP     BB 1266   7.069   4.735   6.760  0.0621  0.3399 -0.0601
    2TRP    SC1 1267   7.243   4.932   6.698  0.3865 -0.4808  0.3268
    2TRP    SC2 1268   7.388   5.128   6.583  0.0058 -0.2699  0.1808
    2TRP    SC3 1269   7.395   4.878   6.482  0.1743 -0.2369  0.1069
    2TRP    SC4 1270   7.555   5.070   6.379  0.2811 -0.1778  0.3711
    3TYR     BB 1271   6.790   4.790   6.814  0.1293 -0.2523  0.0712
    3TYR    SC1 1272   6.567   4.966   6.791 -0.2375  0.0227  0.0846
    3TYR    SC2 1273   6.334   5.047   6.901 -0.2596 -0.0108  0.0629
    3TYR    SC3 1274   6.408   5.141   6.659 -0.1615  0.1427  0.1502
    1TYR     BB 1275   4.866   2.902   4.052 -0.1092 -0.1070 -0.0785
    1TYR    SC1 1276   4.695   2.654   3.989 -0.1744 -0.0741 -0.0473
    1TYR    SC2 1277   4.478   2.529   4.090 -0.1884 -0.3794 -0.4268
    1TYR    SC3 1278   4.530   2.517   3.825  0.1158 -0.0288 -0.3933
    2TRP     BB 1279   4.684   3.085   4.186  0.0573  0.1012 -0.1356
    2TRP    SC1 1280   4.405   3.114   4.032  0.3511  0.0513 -0.1073
    2TRP    SC2 1281   4.254   3.184   3.819  0.3286  0.1304 -0.0658
    2TRP    SC3 1282   4.391   2.952   3.817  0.1222  0.0060 -0.0615
    2TRP    SC4 1283   4.240   3.021   3.604 -0.0288  0.0056  0.0435
    3TYR     BB 1284   4.700   3.328   4.415  0.0318  0.4591 -0.0403
    3TYR    SC1 1285   4.825   3.582   4.402  0.1812  0.0496  0.1723
    3TYR    SC2 1286   5.025   3.760   4.370 -0.0109  0.2397 -0.0034
    3TYR    SC3 1287   4.769   3.845   4.382 -0.1020 -0.0204 -0.0321
    1TYR     BB 1288   5.132   3.367   3.175  0.1705  0.0784 -0.1130
    1TYR    SC1 1289   4.879   3.444   2.994 -0.0487  0.2417  0.4228
    1TYR    SC2 1290   4.685   3.588   2.872  0.1463  0.0425 -0.1649
    1TYR    SC3 1291   4.900   3.504   2.732  0.2059 -0.5442  0.2306
    2TRP     BB 1292   5.246   3.070   3.068  0.1339  0.1646 -0.0842
    2TRP    SC1 1293   5.414   2.903   3.239  0.0822  0.1047  0.1496
    2TRP    SC2 1294   5.607   2.749   3.348 -0.0140  0.1051  0.3249
    2TRP    SC3 1295   5.673   2.977   3.219  0.1516 -0.1860 -0.1372
    2TRP    SC4 1296   5.866   2.806   3.300  0.0242 -0.2259  0.0958
    3TYR     BB 1297   5.271   3.035   2.773 -0.1031 -0.2179 -0.1701
    3TYR    SC1 1298   5.498   2.860   2.756  0.2753  0.5048 -0.1033
    3TYR    SC2 1299   5.577   2.686   2.565 -0.0471  0.0044  0.1877
    3TYR    SC3 1300   5.752   2.768   2.754  0.0844 -0.0896  0.1086
   7.62593   7.62593   7.62593
