Generated by trjconv : Martini system from ../2_Creating_coordinates/TYR-ASP-TYR_aa.pdb t=   0.00000
 1000
    1TYR     BB    1   7.705   3.631   4.052 -0.1493  0.0586  0.3497
    1TYR    SC1    2   7.677   3.343   4.071  0.2837 -0.3074  0.0482
    1TYR    SC2    3   7.562   3.105   4.128 -0.0223 -0.2499 -0.2803
    1TYR    SC3    4   7.800   3.114   4.000 -0.0206 -0.3790 -0.2872
    2ASP     BB    5   7.628   3.917   4.011  0.0770 -0.0099  0.1285
    2ASP    SC1    6   7.870   4.113   4.089 -0.3137  0.4506  0.1713
    3TYR     BB    7   7.413   4.083   3.842  0.1741  0.1596 -0.0579
    3TYR    SC1    8   7.473   4.367   3.909 -0.1448 -0.2435  0.1125
    3TYR    SC2    9   7.629   4.511   4.075  0.1284 -0.3609 -0.0321
    3TYR    SC3   10   7.550   4.616   3.840 -0.2337 -0.2059  0.1472
    1TYR     BB   11   4.207   3.933   3.791  0.2429 -0.1559 -0.1680
    1TYR    SC1   12   4.015   4.083   3.938  0.0103 -0.1438  0.3673
    1TYR    SC2   13   3.784   4.143   4.066 -0.1134 -0.0705  0.1184
    1TYR    SC3   14   3.817   4.212   3.807  0.1791 -0.1071  0.1409
    2ASP     BB   15   4.169   3.872   3.492 -0.2950  0.3558 -0.1757
    2ASP    SC1   16   4.337   3.664   3.333 -0.1895  0.0543 -0.0197
    3TYR     BB   17   4.012   4.080   3.368 -0.2476  0.3350 -0.0970
    3TYR    SC1   18   3.905   4.061   3.118  0.1472  0.2470 -0.0494
    3TYR    SC2   19   3.809   4.078   2.866 -0.2714 -0.0463  0.0782
    3TYR    SC3   20   3.958   3.865   2.941 -0.2093  0.0037  0.0977
    1TYR     BB   21   1.298   4.196   3.585  0.4319  0.1846  0.1762
    1TYR    SC1   22   1.546   4.355   3.478  0.0557  0.2289 -0.0073
    1TYR    SC2   23   1.794   4.424   3.562  0.1651 -0.1612  0.0092
    1TYR    SC3   24   1.666   4.577   3.381  0.2896  0.2090  0.2219
    2ASP     BB   25   1.276   3.898   3.325  0.0258 -0.1968 -0.0213
    2ASP    SC1   26   1.258   4.153   3.122 -0.0596 -0.3315  0.4212
    3TYR     BB   27   1.324   3.627   3.218 -0.1305 -0.3555 -0.0414
    3TYR    SC1   28   1.309   3.566   2.944  0.1582  0.0439 -0.3222
    3TYR    SC2   29   1.390   3.461   2.709  0.3157  0.0596 -0.2766
    3TYR    SC3   30   1.271   3.703   2.714  0.0765 -0.0513 -0.3664
    1TYR     BB   31   6.964   1.543   2.718 -0.0621  0.0666 -0.0060
    1TYR    SC1   32   6.703   1.489   2.882 -0.1400 -0.1198 -0.0836
    1TYR    SC2   33   6.580   1.380   3.097 -0.0077  0.3079  0.2259
    1TYR    SC3   34   6.456   1.383   2.857 -0.0355 -0.4610  0.1988
    2ASP     BB   35   7.212   1.441   2.937 -0.1474  0.0589 -0.0077
    2ASP    SC1   36   7.134   1.183   3.052 -0.0557  0.0857 -0.2071
    3TYR     BB   37   7.430   1.602   2.958 -0.1951  0.2517 -0.2412
    3TYR    SC1   38   7.673   1.520   3.203 -0.1687  0.0572  0.1174
    3TYR    SC2   39   7.793   1.289   3.270  0.1760  0.1141 -0.2560
    3TYR    SC3   40   7.919   1.525   3.312  0.0998  0.1908 -0.4436
    1TYR     BB   41  -1.120   3.187   4.418 -0.4351 -0.0239 -0.2592
    1TYR    SC1   42  -1.085   3.069   4.133 -0.2801  0.1915  0.1628
    1TYR    SC2   43  -0.920   3.041   3.922 -0.0920 -0.2917  0.3556
    1TYR    SC3   44  -1.121   3.223   3.913  0.2059  0.0452 -0.0333
    2ASP     BB   45  -0.741   3.227   4.429 -0.1285 -0.2226  0.1341
    2ASP    SC1   46  -0.684   3.504   4.398 -0.0311  0.0234  0.1009
    3TYR     BB   47  -0.557   3.018   4.277  0.2660  0.2893 -0.2598
    3TYR    SC1   48  -0.304   3.103   4.188  0.1188  0.1015  0.2533
    3TYR    SC2   49  -0.054   3.051   4.099 -0.0489  0.3000 -0.4088
    3TYR    SC3   50  -0.164   3.294   4.057 -0.2841  0.2936  0.0819
    1TYR     BB   51   3.345   3.343   4.538  0.2743  0.2307  0.1513
    1TYR    SC1   52   3.607   3.447   4.571 -0.1365  0.3501 -0.2846
    1TYR    SC2   53   3.877   3.453   4.563 -0.0954 -0.2192  0.0283
    1TYR    SC3   54   3.743   3.609   4.738  0.0466 -0.1128  0.0437
    2ASP     BB   55   3.158   3.289   4.248 -0.2847 -0.0913  0.2386
    2ASP    SC1   56   2.894   3.465   4.254 -0.1362  0.0580  0.0689
    3TYR     BB   57   3.214   3.106   4.006 -0.4984 -0.2022 -0.1567
    3TYR    SC1   58   3.304   3.227   3.760 -0.0285  0.0060 -0.0808
    3TYR    SC2   59   3.280   3.383   3.541  0.0666 -0.0904 -0.1616
    3TYR    SC3   60   3.525   3.319   3.633  0.0281  0.0658  0.0586
    1TYR     BB   61   2.445   3.709   4.089  0.4722 -0.0515 -0.1172
    1TYR    SC1   62   2.184   3.662   4.279 -0.0724 -0.0739 -0.0985
    1TYR    SC2   63   2.016   3.770   4.462 -0.1545 -0.1438 -0.1320
    1TYR    SC3   64   2.097   3.513   4.487 -0.4772 -0.2806 -0.3995
    2ASP     BB   65   2.299   3.497   3.833  0.1349 -0.0242 -0.0319
    2ASP    SC1   66   2.275   3.220   3.863 -0.3074 -0.5899  0.3201
    3TYR     BB   67   2.262   3.690   3.567 -0.0099  0.0067  0.0652
    3TYR    SC1   68   1.949   3.771   3.522  0.2221  0.0405  0.0974
    3TYR    SC2   69   1.715   3.907   3.540  0.1534 -0.0218 -0.2351
    3TYR    SC3   70   1.713   3.639   3.507  0.2803 -0.0527 -0.0208
    1TYR     BB   71   2.795   4.170   4.236 -0.0436  0.0318  0.1645
    1TYR    SC1   72   2.867   3.960   4.042  0.1725  0.3331  0.0254
    1TYR    SC2   73   2.774   3.890   3.799  0.2643  0.3743 -0.0226
    1TYR    SC3   74   3.013   3.798   3.883  0.1714  0.2491  0.1093
    2ASP     BB   75   2.697   3.901   4.541  0.1008 -0.0294  0.1277
    2ASP    SC1   76   2.559   3.613   4.625  0.2013  0.1066 -0.0736
    3TYR     BB   77   2.653   4.158   4.770  0.1123  0.3331 -0.1199
    3TYR    SC1   78   2.369   4.149   4.806  0.2456 -0.2332 -0.1674
    3TYR    SC2   79   2.183   4.338   4.752  0.1674 -0.3095 -0.1677
    3TYR    SC3   80   2.108   4.080   4.783  0.2704 -0.3367 -0.1431
    1TYR     BB   81   8.080   2.682   4.047 -0.0428  0.1705 -0.1326
    1TYR    SC1   82   8.304   2.475   3.992 -0.0934  0.0259 -0.0756
    1TYR    SC2   83   8.337   2.295   3.794  0.3215 -0.0109  0.0149
    1TYR    SC3   84   8.544   2.356   3.956  0.1620  0.4698  0.0590
    2ASP     BB   85   8.086   2.849   4.283  0.1243  0.1317  0.0386
    2ASP    SC1   86   8.190   3.175   4.311  0.2275  0.0230 -0.2535
    3TYR     BB   87   7.829   2.845   4.494 -0.0044  0.0131 -0.0302
    3TYR    SC1   88   7.751   3.138   4.533  0.1100 -0.0901 -0.0056
    3TYR    SC2   89   7.561   3.326   4.572  0.0011 -0.2360  0.1892
    3TYR    SC3   90   7.778   3.316   4.733  0.1544 -0.1011 -0.0015
    1TYR     BB   91   3.704   2.928   4.655 -0.0423 -0.3186  0.0791
    1TYR    SC1   92   3.631   3.078   4.880 -0.1387 -0.2454  0.1448
    1TYR    SC2   93   3.571   3.307   5.010  0.1067 -0.1106  0.0310
    1TYR    SC3   94   3.653   3.091   5.149 -0.2028 -0.1601  0.1466
    2ASP     BB   95   3.623   2.958   4.325 -0.4358 -0.2115 -0.1176
    2ASP    SC1   96   3.441   2.691   4.262  0.0456  0.2054 -0.1682
    3TYR     BB   97   3.735   3.209   4.172  0.3572  0.3286 -0.1034
    3TYR    SC1   98   3.877   3.292   3.913  0.0914  0.1017  0.1172
    3TYR    SC2   99   3.948   3.244   3.657 -0.1405  0.0497  0.0596
    3TYR    SC3  100   3.948   3.497   3.751 -0.0659  0.0703  0.0056
    1TYR     BB  101   4.373   6.215   3.931 -0.3375  0.1026 -0.0526
    1TYR    SC1  102   4.375   6.513   3.950  0.2936 -0.2871 -0.1538
    1TYR    SC2  103   4.357   6.766   4.043 -0.1703 -0.3895  0.0719
    1TYR    SC3  104   4.519   6.710   3.835 -0.0465  0.0863  0.0259
    2ASP     BB  105   4.475   6.125   3.653 -0.1666  0.3308 -0.1737
    2ASP    SC1  106   4.747   6.265   3.658  0.3995  0.1379 -0.0831
    3TYR     BB  107   4.473   5.784   3.564  0.1687 -0.0627 -0.1987
    3TYR    SC1  108   4.242   5.667   3.437 -0.1380 -0.0807 -0.0002
    3TYR    SC2  109   4.117   5.547   3.229 -0.1758 -0.0697  0.0160
    3TYR    SC3  110   4.128   5.424   3.470 -0.0437 -0.1277 -0.0188
    1TYR     BB  111   4.524   7.300   2.699 -0.0353  0.2864 -0.0390
    1TYR    SC1  112   4.345   7.417   2.487 -0.1577 -0.2887 -0.0272
    1TYR    SC2  113   4.193   7.629   2.416  0.1563 -0.0949 -0.1429
    1TYR    SC3  114   4.215   7.418   2.250 -0.1349 -0.2130 -0.0396
    2ASP     BB  115   4.593   7.419   3.037 -0.1037  0.0062 -0.1802
    2ASP    SC1  116   4.876   7.473   3.137 -0.1239  0.0629 -0.1005
    3TYR     BB  117   4.414   7.274   3.250 -0.0119 -0.0198  0.0401
    3TYR    SC1  118   4.173   7.425   3.338  0.1683  0.2955 -0.2451
    3TYR    SC2  119   3.906   7.451   3.310  0.0801 -0.0735  0.1325
    3TYR    SC3  120   4.058   7.668   3.362 -0.1798  0.1091  0.1587
    1TYR     BB  121   6.569   3.149   4.591 -0.0363 -0.1257  0.1969
    1TYR    SC1  122   6.272   3.048   4.568  0.1566 -0.3500 -0.4416
    1TYR    SC2  123   6.025   2.964   4.637  0.2967 -0.3370  0.1316
    1TYR    SC3  124   6.153   2.851   4.429 -0.2500 -0.2220 -0.2951
    2ASP     BB  125   6.662   2.844   4.411  0.1133  0.1606 -0.1412
    2ASP    SC1  126   6.647   2.651   4.677 -0.3821 -0.0339 -0.2628
    3TYR     BB  127   6.562   2.776   4.171 -0.0783 -0.2998 -0.1346
    3TYR    SC1  128   6.616   2.910   3.919 -0.1252  0.0649  0.0039
    3TYR    SC2  129   6.774   3.019   3.730 -0.0185 -0.1370 -0.0271
    3TYR    SC3  130   6.509   2.996   3.686 -0.1151  0.4532  0.1344
    1TYR     BB  131  -0.733   1.629   3.414  0.1590 -0.0787  0.0475
    1TYR    SC1  132  -0.711   1.443   3.697  0.2075  0.3129  0.0310
    1TYR    SC2  133  -0.542   1.267   3.810  0.1632  0.0395 -0.3044
    1TYR    SC3  134  -0.788   1.300   3.912  0.1905 -0.0540 -0.2052
    2ASP     BB  135  -0.668   1.896   3.398  0.1553  0.1708 -0.0202
    2ASP    SC1  136  -0.521   2.003   3.130  0.0195 -0.3288 -0.0719
    3TYR     BB  137  -0.553   2.188   3.608  0.2585  0.0028  0.0418
    3TYR    SC1  138  -0.300   2.183   3.744  0.0856  0.1261  0.0190
    3TYR    SC2  139  -0.048   2.084   3.745  0.1320  0.2381 -0.1183
    3TYR    SC3  140  -0.088   2.350   3.769  0.0238  0.2160 -0.0502
    1TYR     BB  141  -0.445   1.824   3.996 -0.2242 -0.0356  0.1457
    1TYR    SC1  142  -0.288   1.669   3.743 -0.0531 -0.0452 -0.1969
    1TYR    SC2  143  -0.232   1.587   3.492  0.3244 -0.1379 -0.0901
    1TYR    SC3  144  -0.133   1.453   3.703 -0.0031 -0.0717  0.1157
    2ASP     BB  145  -0.725   1.843   3.966  0.0132  0.0760  0.2342
    2ASP    SC1  146  -0.839   1.646   4.221 -0.2772  0.0700 -0.0709
    3TYR     BB  147  -1.029   1.885   3.834  0.0520 -0.0604 -0.1624
    3TYR    SC1  148  -1.066   2.034   3.573 -0.1944 -0.2007  0.1100
    3TYR    SC2  149  -1.227   2.212   3.449 -0.0670 -0.0737  0.1214
    3TYR    SC3  150  -1.131   1.998   3.315 -0.1520 -0.0876  0.0826
    1TYR     BB  151   3.999   5.521   4.422 -0.0451  0.1121 -0.0060
    1TYR    SC1  152   4.181   5.563   4.178 -0.0828  0.0765  0.3354
    1TYR    SC2  153   4.251   5.500   3.924 -0.1946  0.0889  0.3007
    1TYR    SC3  154   4.435   5.600   4.095 -0.1062  0.0301  0.2409
    2ASP     BB  155   3.804   5.711   4.501 -0.0222 -0.1705 -0.3907
    2ASP    SC1  156   3.517   5.664   4.409 -0.2040  0.1327  0.0816
    3TYR     BB  157   3.844   5.987   4.695  0.3701 -0.3540  0.1456
    3TYR    SC1  158   4.094   6.008   4.849 -0.1546 -0.0194 -0.0313
    3TYR    SC2  159   4.336   5.906   4.915 -0.0266  0.1443 -0.2314
    3TYR    SC3  160   4.173   6.002   5.107 -0.1648 -0.4415 -0.0291
    1TYR     BB  161  -1.462   2.358   4.176  0.0009  0.1033  0.2392
    1TYR    SC1  162  -1.206   2.396   3.998  0.1959 -0.0645  0.3156
    1TYR    SC2  163  -1.061   2.622   3.973 -0.0507  0.0941  0.2802
    1TYR    SC3  164  -0.996   2.403   3.829  0.1623  0.1551  0.2802
    2ASP     BB  165  -1.439   2.024   4.304 -0.0648  0.1007  0.1628
    2ASP    SC1  166  -1.569   2.059   4.572  0.0220  0.0375  0.0339
    3TYR     BB  167  -1.309   1.791   4.222  0.1796  0.1495  0.0665
    3TYR    SC1  168  -1.339   1.522   4.092  0.0446 -0.2644 -0.1708
    3TYR    SC2  169  -1.293   1.374   3.871 -0.0987 -0.1989 -0.2465
    3TYR    SC3  170  -1.335   1.252   4.108 -0.5584 -0.3052 -0.3704
    1TYR     BB  171   0.050   3.213   3.186 -0.2320 -0.2553 -0.2543
    1TYR    SC1  172   0.028   3.524   3.232  0.3722  0.0413 -0.0294
    1TYR    SC2  173   0.176   3.740   3.168  0.2891  0.1695  0.1998
    1TYR    SC3  174  -0.034   3.765   3.337  0.2732 -0.0883  0.2221
    2ASP     BB  175  -0.181   3.026   3.322 -0.1466 -0.0645  0.1182
    2ASP    SC1  176  -0.405   2.947   3.131  0.0838 -0.0175 -0.2615
    3TYR     BB  177  -0.120   2.831   3.583 -0.0592  0.0825  0.1137
    3TYR    SC1  178  -0.396   2.686   3.691  0.1285  0.0418 -0.0671
    3TYR    SC2  179  -0.602   2.658   3.865  0.1861  0.0272 -0.0006
    3TYR    SC3  180  -0.651   2.711   3.605  0.1052  0.3595  0.0752
    1TYR     BB  181   5.986   3.785   5.026 -0.2099  0.2048 -0.0986
    1TYR    SC1  182   5.978   4.032   5.241  0.0752 -0.3540  0.3306
    1TYR    SC2  183   5.818   4.140   5.431  0.0060 -0.1311  0.1513
    1TYR    SC3  184   6.081   4.202   5.423 -0.0545  0.1254 -0.0170
    2ASP     BB  185   5.776   3.698   4.899  0.0748 -0.4443  0.1304
    2ASP    SC1  186   5.639   3.429   5.012  0.2383 -0.0401 -0.0761
    3TYR     BB  187   5.675   3.798   4.626  0.0720  0.2501  0.0459
    3TYR    SC1  188   5.908   3.948   4.519  0.0085  0.0349  0.0887
    3TYR    SC2  189   5.976   4.161   4.368 -0.3070  0.0058 -0.1074
    3TYR    SC3  190   6.151   3.958   4.402 -0.1073  0.1662 -0.1522
    1TYR     BB  191   6.399   3.304   4.163 -0.0855 -0.0203  0.0604
    1TYR    SC1  192   6.154   3.145   4.082 -0.1008  0.4426 -0.0677
    1TYR    SC2  193   5.985   3.115   3.874  0.1114  0.1250 -0.2027
    1TYR    SC3  194   5.896   3.079   4.126 -0.0333  0.0053 -0.2690
    2ASP     BB  195   6.531   3.454   3.975 -0.0181 -0.4987 -0.0422
    2ASP    SC1  196   6.835   3.451   3.962 -0.0179 -0.1815 -0.1294
    3TYR     BB  197   6.431   3.704   3.846  0.0948 -0.1276  0.0802
    3TYR    SC1  198   6.275   3.962   3.834 -0.0581  0.0596 -0.0349
    3TYR    SC2  199   6.083   4.102   3.964 -0.1574  0.0366 -0.1550
    3TYR    SC3  200   6.097   4.110   3.695  0.1257  0.1864 -0.1404
    1TYR     BB  201   2.392   3.477   2.999  0.0819 -0.1516  0.1923
    1TYR    SC1  202   2.177   3.406   3.209  0.0488 -0.1565 -0.3161
    1TYR    SC2  203   1.926   3.351   3.295  0.0381 -0.0073 -0.2476
    1TYR    SC3  204   2.134   3.207   3.387  0.0016  0.0099 -0.1371
    2ASP     BB  205   2.377   3.689   2.833  0.0314  0.1627 -0.3711
    2ASP    SC1  206   2.522   3.630   2.554  0.1598  0.2268  0.1860
    3TYR     BB  207   2.219   3.940   2.961  0.0142  0.1059 -0.1508
    3TYR    SC1  208   2.377   4.003   3.239 -0.1960  0.3231 -0.0119
    3TYR    SC2  209   2.286   4.147   3.450 -0.0697  0.2214  0.1149
    3TYR    SC3  210   2.551   4.102   3.421 -0.1102 -0.0379  0.1134
    1TYR     BB  211   7.027   1.079   2.541 -0.1744 -0.2593  0.1016
    1TYR    SC1  212   6.762   1.071   2.714  0.1016 -0.2047 -0.1058
    1TYR    SC2  213   6.510   0.975   2.706  0.0263 -0.0171 -0.0620
    1TYR    SC3  214   6.660   0.945   2.929 -0.0519  0.1016  0.0070
    2ASP     BB  215   7.366   1.017   2.582 -0.1360  0.1937 -0.0856
    2ASP    SC1  216   7.371   0.749   2.415 -0.3272 -0.0023  0.3597
    3TYR     BB  217   7.542   1.053   2.746 -0.5540  0.1642 -0.3862
    3TYR    SC1  218   7.758   1.258   2.792 -0.0689  0.2356  0.2527
    3TYR    SC2  219   7.894   1.413   2.618  0.0416 -0.0117  0.1112
    3TYR    SC3  220   7.949   1.427   2.882  0.1367  0.0987  0.0870
    1TYR     BB  221   0.421   2.903   3.204 -0.0942  0.0897  0.0788
    1TYR    SC1  222   0.647   2.869   3.016  0.1051 -0.0185  0.1108
    1TYR    SC2  223   0.676   2.808   2.755  0.0029  0.0040  0.0937
    1TYR    SC3  224   0.890   2.806   2.918  0.0377 -0.1882  0.0486
    2ASP     BB  225   0.209   2.671   3.225  0.0878  0.2135  0.0747
    2ASP    SC1  226   0.039   2.680   2.952  0.2867  0.2889 -0.5150
    3TYR     BB  227   0.229   2.462   3.415  0.1143 -0.3457 -0.1815
    3TYR    SC1  228   0.135   2.178   3.316 -0.1582 -0.0412 -0.1379
    3TYR    SC2  229  -0.024   1.961   3.325 -0.0621 -0.1146 -0.1910
    3TYR    SC3  230  -0.016   2.113   3.103  0.2356 -0.3381 -0.3418
    1TYR     BB  231   1.864   2.932   3.779  0.3208  0.3318 -0.0647
    1TYR    SC1  232   1.655   3.093   3.629  0.2423  0.0144  0.0431
    1TYR    SC2  233   1.527   3.174   3.405  0.3474  0.2365  0.0599
    1TYR    SC3  234   1.474   3.294   3.641  0.2710  0.0346  0.1481
    2ASP     BB  235   1.765   2.653   3.838 -0.1969 -0.3667  0.1902
    2ASP    SC1  236   1.811   2.657   4.154 -0.2356  0.2245 -0.0893
    3TYR     BB  237   1.753   2.437   3.619 -0.0529 -0.0418 -0.5120
    3TYR    SC1  238   1.870   2.568   3.326  0.0100 -0.3395 -0.1512
    3TYR    SC2  239   1.962   2.820   3.283 -0.0377 -0.2289  0.3198
    3TYR    SC3  240   1.915   2.655   3.074  0.0985  0.1119  0.0066
    1TYR     BB  241  -1.743   2.120   3.345  0.0273  0.2941 -0.1290
    1TYR    SC1  242  -1.667   1.901   3.197  0.2925  0.3294 -0.1170
    1TYR    SC2  243  -1.471   1.774   3.062 -0.0967 -0.1087 -0.3046
    1TYR    SC3  244  -1.701   1.644   3.120 -0.2990  0.3541  0.0002
    2ASP     BB  245  -1.652   2.130   3.667  0.1091  0.0740 -0.1684
    2ASP    SC1  246  -1.604   2.469   3.693  0.0347  0.1405 -0.2796
    3TYR     BB  247  -1.511   1.936   3.795 -0.0771  0.1572  0.2042
    3TYR    SC1  248  -1.468   1.697   3.647  0.0938  0.0375  0.0121
    3TYR    SC2  249  -1.332   1.594   3.437  0.0498  0.1953 -0.0956
    3TYR    SC3  250  -1.556   1.472   3.527  0.0696  0.1263 -0.1396
    1TYR     BB  251   4.253   5.644   2.787  0.1595  0.3201  0.0541
    1TYR    SC1  252   4.259   5.403   2.611  0.2919 -0.0247 -0.0590
    1TYR    SC2  253   4.165   5.316   2.373  0.2712  0.1786 -0.1267
    1TYR    SC3  254   4.416   5.251   2.453  0.0372 -0.5168  0.1329
    2ASP     BB  255   4.404   5.844   2.599  0.0930  0.1761 -0.0649
    2ASP    SC1  256   4.661   5.776   2.437  0.2204 -0.3885  0.1366
    3TYR     BB  257   4.188   6.068   2.483  0.1248 -0.1954  0.0571
    3TYR    SC1  258   4.149   6.243   2.735 -0.1146  0.1441  0.0829
    3TYR    SC2  259   4.230   6.495   2.682  0.1817  0.0414  0.0197
    3TYR    SC3  260   4.103   6.439   2.914  0.2060  0.2294  0.0806
    1TYR     BB  261   8.341   1.682   3.227 -0.1150 -0.0176 -0.0428
    1TYR    SC1  262   8.317   1.719   2.941 -0.2868  0.2244  0.2335
    1TYR    SC2  263   8.206   1.733   2.694 -0.3230 -0.1352  0.2237
    1TYR    SC3  264   8.435   1.867   2.748 -0.3594  0.0125  0.0211
    2ASP     BB  265   8.330   2.012   3.366  0.1201  0.0707 -0.0561
    2ASP    SC1  266   8.508   2.150   3.164  0.2929  0.0379  0.0596
    3TYR     BB  267   8.058   1.998   3.448 -0.2218  0.4267  0.0225
    3TYR    SC1  268   7.925   2.198   3.577 -0.2287  0.0666 -0.1404
    3TYR    SC2  269   7.905   2.436   3.702 -0.2891 -0.0571  0.0925
    3TYR    SC3  270   7.682   2.294   3.646 -0.2383 -0.1842  0.2070
    1TYR     BB  271   6.652   3.474   5.307 -0.1635 -0.0907 -0.0624
    1TYR    SC1  272   6.729   3.185   5.417  0.1913  0.1252  0.2961
    1TYR    SC2  273   6.681   3.148   5.679  0.1969 -0.0302  0.2760
    1TYR    SC3  274   6.767   2.943   5.527  0.0185  0.0114  0.1139
    2ASP     BB  275   6.266   3.441   5.289  0.3683 -0.1808 -0.1169
    2ASP    SC1  276   6.212   3.671   5.545  0.1329 -0.1294  0.1338
    3TYR     BB  277   6.203   3.301   4.996  0.1844 -0.1351 -0.0109
    3TYR    SC1  278   6.328   3.016   5.066 -0.1814 -0.0016  0.2212
    3TYR    SC2  279   6.301   2.770   4.956  0.2668  0.0883 -0.1283
    3TYR    SC3  280   6.425   2.799   5.194 -0.0834 -0.0430  0.0801
    1TYR     BB  281   8.283   1.153   3.075  0.1057 -0.2096 -0.3114
    1TYR    SC1  282   8.138   0.882   3.038  0.2142 -0.2043  0.2135
    1TYR    SC2  283   7.892   0.776   3.002  0.2127 -0.0839 -0.1880
    1TYR    SC3  284   8.113   0.623   2.965  0.2048 -0.0321 -0.4835
    2ASP     BB  285   8.465   1.188   2.884  0.1032  0.1520  0.0069
    2ASP    SC1  286   8.708   1.389   2.909  0.1153  0.1731  0.2186
    3TYR     BB  287   8.310   1.155   2.618 -0.0823  0.0520 -0.0867
    3TYR    SC1  288   8.072   0.982   2.611  0.0789 -0.1265  0.0907
    3TYR    SC2  289   7.918   0.955   2.391  0.2852 -0.1977 -0.0499
    3TYR    SC3  290   7.928   0.756   2.574  0.3062 -0.2461 -0.1034
    1TYR     BB  291   3.363   3.320   3.082 -0.2177 -0.0181 -0.2073
    1TYR    SC1  292   3.335   3.622   3.059  0.1281 -0.1080  0.1105
    1TYR    SC2  293   3.362   3.729   2.813 -0.0872 -0.1232  0.0775
    1TYR    SC3  294   3.479   3.847   3.025 -0.4822  0.3081  0.0758
    2ASP     BB  295   3.678   3.248   3.168 -0.0927  0.0979  0.1853
    2ASP    SC1  296   3.700   2.964   3.299 -0.4022 -0.1221  0.2798
    3TYR     BB  297   3.869   3.512   3.279 -0.1441  0.0024  0.1140
    3TYR    SC1  298   3.668   3.691   3.430  0.3595  0.2942  0.1331
    3TYR    SC2  299   3.443   3.782   3.548  0.1861  0.0199  0.0257
    3TYR    SC3  300   3.685   3.847   3.650  0.0665  0.3994  0.0858
    1TYR     BB  301   7.828   1.866   2.376 -0.2530 -0.4330 -0.1708
    1TYR    SC1  302   8.001   1.634   2.273  0.0742 -0.1086  0.0265
    1TYR    SC2  303   8.159   1.417   2.246  0.3330  0.0765 -0.0036
    1TYR    SC3  304   8.225   1.648   2.122  0.1131  0.2010  0.1014
    2ASP     BB  305   7.915   2.144   2.274  0.1076  0.2645 -0.2536
    2ASP    SC1  306   8.153   2.236   2.477 -0.0243 -0.0065 -0.3028
    3TYR     BB  307   7.736   2.409   2.205 -0.0186 -0.3891  0.1276
    3TYR    SC1  308   7.701   2.565   2.463 -0.0421 -0.1103  0.0303
    3TYR    SC2  309   7.599   2.680   2.685 -0.1984 -0.1507 -0.0194
    3TYR    SC3  310   7.769   2.471   2.707 -0.3047 -0.2299  0.0605
    1TYR     BB  311  -0.969   1.648   2.978  0.0074  0.1406 -0.1112
    1TYR    SC1  312  -0.676   1.548   2.931  0.0951  0.1699 -0.1271
    1TYR    SC2  313  -0.501   1.383   2.810  0.0641 -0.2282  0.3325
    1TYR    SC3  314  -0.421   1.538   3.016  0.1064  0.4069 -0.1239
    2ASP     BB  315  -1.046   1.897   2.849  0.1950  0.1351 -0.2526
    2ASP    SC1  316  -1.228   1.876   2.597  0.1254 -0.1265  0.2943
    3TYR     BB  317  -0.867   2.119   2.823 -0.1334  0.2726 -0.0474
    3TYR    SC1  318  -0.842   2.327   3.039 -0.4075 -0.0127  0.1325
    3TYR    SC2  319  -0.903   2.411   3.289 -0.1432 -0.0120  0.2020
    3TYR    SC3  320  -0.825   2.590   3.102  0.1350 -0.0631  0.2648
    1TYR     BB  321   6.720   4.343   5.029  0.0611  0.2680 -0.0933
    1TYR    SC1  322   6.888   4.072   4.935  0.2521 -0.0983  0.2579
    1TYR    SC2  323   6.979   3.908   4.741  0.1008  0.2545 -0.1305
    1TYR    SC3  324   6.952   3.816   4.994  0.0523 -0.3001 -0.3190
    2ASP     BB  325   6.541   4.153   5.251  0.0696  0.2100 -0.1287
    2ASP    SC1  326   6.722   4.103   5.521  0.1332  0.0810  0.0941
    3TYR     BB  327   6.453   3.900   5.152  0.2697 -0.1737 -0.1957
    3TYR    SC1  328   6.510   3.792   4.875 -0.0707 -0.2105  0.2297
    3TYR    SC2  329   6.626   3.557   4.814  0.0192 -0.1206  0.0422
    3TYR    SC3  330   6.610   3.752   4.627  0.1492  0.1049  0.2581
    1TYR     BB  331   7.486   3.037   4.992 -0.1883 -0.0455  0.0358
    1TYR    SC1  332   7.362   2.953   4.718  0.2411  0.1637 -0.2680
    1TYR    SC2  333   7.361   2.903   4.453 -0.1803  0.0657 -0.2567
    1TYR    SC3  334   7.147   2.835   4.603 -0.0259  0.2919  0.0787
    2ASP     BB  335   7.269   3.343   4.995 -0.0455  0.1122  0.2205
    2ASP    SC1  336   7.151   3.276   5.264 -0.0591 -0.1825 -0.2009
    3TYR     BB  337   7.118   3.397   4.786  0.1820 -0.1239  0.0401
    3TYR    SC1  338   7.131   3.329   4.525 -0.2392 -0.0973 -0.0406
    3TYR    SC2  339   7.247   3.307   4.281  0.1395 -0.0064  0.1217
    3TYR    SC3  340   7.016   3.176   4.334 -0.0072  0.0557 -0.3137
    1TYR     BB  341   5.482   3.845   5.247 -0.0829  0.1184 -0.0741
    1TYR    SC1  342   5.260   3.926   5.137 -0.1369 -0.3081  0.1860
    1TYR    SC2  343   4.997   3.920   5.075 -0.1175 -0.0294  0.0617
    1TYR    SC3  344   5.101   4.134   5.201  0.0768 -0.0783 -0.0101
    2ASP     BB  345   5.433   3.845   5.606 -0.2350  0.0813  0.0212
    2ASP    SC1  346   5.284   3.566   5.695 -0.2195  0.0949 -0.2332
    3TYR     BB  347   5.451   4.104   5.738  0.1099 -0.1268  0.2473
    3TYR    SC1  348   5.366   4.304   5.548  0.2341  0.0238  0.2211
    3TYR    SC2  349   5.395   4.572   5.528  0.2327  0.0059 -0.0928
    3TYR    SC3  350   5.433   4.416   5.312 -0.1026 -0.2177 -0.0005
    1TYR     BB  351   6.389   1.797   3.996 -0.0678 -0.2141 -0.2643
    1TYR    SC1  352   6.414   1.671   3.706  0.0827 -0.2582  0.1007
    1TYR    SC2  353   6.359   1.519   3.490 -0.0483  0.1067 -0.1333
    1TYR    SC3  354   6.584   1.667   3.497 -0.0715  0.1381 -0.0430
    2ASP     BB  355   6.511   2.168   3.962  0.1739 -0.2375  0.0618
    2ASP    SC1  356   6.354   2.307   4.227 -0.0304 -0.2766 -0.0379
    3TYR     BB  357   6.602   2.458   3.766  0.3003 -0.2334 -0.3703
    3TYR    SC1  358   6.713   2.553   3.529  0.3773  0.1311  0.2712
    3TYR    SC2  359   6.906   2.634   3.358  0.2144  0.1798  0.1070
    3TYR    SC3  360   6.756   2.418   3.298  0.3261  0.0417  0.3133
    1TYR     BB  361   1.803   4.383   4.378 -0.1331  0.2571  0.2215
    1TYR    SC1  362   2.057   4.205   4.311  0.0737  0.0932  0.2631
    1TYR    SC2  363   2.270   4.365   4.272  0.2123 -0.1726 -0.1571
    1TYR    SC3  364   2.306   4.113   4.364  0.1286 -0.3259 -0.5213
    2ASP     BB  365   1.671   4.495   4.084  0.0340  0.1253  0.0600
    2ASP    SC1  366   1.418   4.645   3.975  0.1318  0.1457 -0.0767
    3TYR     BB  367   1.600   4.200   3.970  0.6147  0.1623  0.2130
    3TYR    SC1  368   1.815   4.075   3.901  0.0210  0.4668 -0.0568
    3TYR    SC2  369   2.073   4.105   3.823  0.1974  0.1406  0.3546
    3TYR    SC3  370   1.994   3.877   3.945 -0.3239  0.1858  0.1339
    1TYR     BB  371  -2.057   1.777   4.358  0.2168 -0.0342 -0.3883
    1TYR    SC1  372  -2.056   1.954   4.637 -0.1747  0.1105  0.1753
    1TYR    SC2  373  -1.979   1.934   4.895  0.3916  0.1021  0.0224
    1TYR    SC3  374  -2.022   2.177   4.784  0.5316  0.1287  0.0252
    2ASP     BB  375  -1.857   1.818   4.140 -0.2855 -0.2461 -0.1824
    2ASP    SC1  376  -1.908   2.112   4.075  0.0693 -0.0258  0.1091
    3TYR     BB  377  -1.832   1.526   3.995 -0.1461 -0.1462 -0.1638
    3TYR    SC1  378  -1.946   1.642   3.686 -0.1762  0.2922 -0.0480
    3TYR    SC2  379  -1.995   1.732   3.437  0.0531  0.4471 -0.0416
    3TYR    SC3  380  -2.071   1.878   3.651  0.0616  0.4262 -0.0243
    1TYR     BB  381   4.028   7.576   3.878  0.1075  0.0369  0.1841
    1TYR    SC1  382   4.140   7.292   3.801 -0.1315 -0.0305  0.6287
    1TYR    SC2  383   4.364   7.157   3.732 -0.1316  0.1424  0.2561
    1TYR    SC3  384   4.136   7.022   3.784 -0.0465 -0.0146  0.2297
    2ASP     BB  385   3.691   7.604   3.873 -0.0538  0.1563 -0.1221
    2ASP    SC1  386   3.617   7.846   4.069  0.0860  0.1060  0.0464
    3TYR     BB  387   3.456   7.603   3.654  0.1447  0.1674 -0.0874
    3TYR    SC1  388   3.168   7.704   3.718 -0.0773  0.1737 -0.0825
    3TYR    SC2  389   2.970   7.877   3.776  0.0035  0.2275  0.0367
    3TYR    SC3  390   3.117   7.769   3.975 -0.1077 -0.0517 -0.0289
    1TYR     BB  391  -0.453   1.753   5.171 -0.3467 -0.0061  0.0407
    1TYR    SC1  392  -0.436   1.656   4.843 -0.0775  0.0525 -0.0338
    1TYR    SC2  393  -0.409   1.644   4.574 -0.1343 -0.0630 -0.0357
    1TYR    SC3  394  -0.648   1.592   4.687 -0.1936  0.2976  0.0187
    2ASP     BB  395  -0.167   1.820   5.258 -0.3858  0.1234 -0.0845
    2ASP    SC1  396  -0.179   1.805   5.598  0.0400 -0.1473 -0.0930
    3TYR     BB  397   0.053   1.646   5.009 -0.2284 -0.2541 -0.0186
    3TYR    SC1  398   0.255   1.740   4.824  0.0781 -0.3906 -0.2416
    3TYR    SC2  399   0.279   1.907   4.611 -0.1712 -0.3968 -0.2759
    3TYR    SC3  400   0.501   1.805   4.727 -0.0083 -0.0042 -0.2230
    1TYR     BB  401  -0.864   3.093   3.368  0.2153 -0.3266 -0.0931
    1TYR    SC1  402  -1.023   2.895   3.501 -0.0053  0.0158  0.0644
    1TYR    SC2  403  -1.246   2.864   3.649  0.1191  0.2606  0.3150
    1TYR    SC3  404  -1.175   2.674   3.471 -0.2787  0.1732  0.2372
    2ASP     BB  405  -0.935   3.180   3.066 -0.1104  0.1560  0.0317
    2ASP    SC1  406  -1.130   3.443   3.091 -0.2278 -0.1000  0.1530
    3TYR     BB  407  -0.766   3.083   2.802 -0.0825  0.0644 -0.1128
    3TYR    SC1  408  -0.915   2.864   2.671 -0.2059  0.0700  0.2364
    3TYR    SC2  409  -1.108   2.687   2.735 -0.0115 -0.1560  0.2143
    3TYR    SC3  410  -0.890   2.606   2.598 -0.1395  0.1962 -0.2289
    1TYR     BB  411   2.635   6.965   3.333  0.0349  0.1542  0.1859
    1TYR    SC1  412   2.893   6.965   3.183 -0.1658 -0.0743  0.0612
    1TYR    SC2  413   3.082   6.780   3.241  0.0604  0.1529  0.0741
    1TYR    SC3  414   3.096   6.921   3.011 -0.1355  0.1263  0.0429
    2ASP     BB  415   2.717   6.881   3.632 -0.1861  0.1353  0.0180
    2ASP    SC1  416   2.503   6.998   3.845  0.1109 -0.1713  0.1606
    3TYR     BB  417   2.919   6.751   3.718 -0.0001 -0.0189  0.1805
    3TYR    SC1  418   3.058   6.829   3.942 -0.3506  0.2124  0.0291
    3TYR    SC2  419   3.262   6.818   4.117 -0.1986  0.1961 -0.1471
    3TYR    SC3  420   3.010   6.843   4.207 -0.1250  0.1671  0.0745
    1TYR     BB  421   6.868   3.958   3.813 -0.0990 -0.2756  0.1452
    1TYR    SC1  422   6.722   4.047   4.064  0.3424 -0.6551  0.1055
    1TYR    SC2  423   6.511   4.162   4.189  0.3331  0.0426 -0.4720
    1TYR    SC3  424   6.711   4.052   4.334 -0.1082 -0.0576  0.1020
    2ASP     BB  425   6.901   4.019   3.566  0.3815  0.0329 -0.4824
    2ASP    SC1  426   6.962   3.849   3.331  0.1894 -0.0760 -0.0467
    3TYR     BB  427   7.166   4.300   3.467  0.1127 -0.3372 -0.1318
    3TYR    SC1  428   7.060   4.434   3.751 -0.0670  0.0658  0.0044
    3TYR    SC2  429   7.103   4.666   3.884 -0.0742  0.1134 -0.0744
    3TYR    SC3  430   7.077   4.433   4.020  0.1720  0.1207 -0.0083
    1TYR     BB  431   4.391   6.894   2.961 -0.4372 -0.1258 -0.1877
    1TYR    SC1  432   4.367   6.690   3.133  0.1556  0.0079 -0.0282
    1TYR    SC2  433   4.395   6.476   3.294 -0.0463 -0.0261 -0.0358
    1TYR    SC3  434   4.335   6.716   3.399 -0.0214 -0.0152 -0.0463
    2ASP     BB  435   4.103   6.962   2.780  0.0213  0.0391 -0.0843
    2ASP    SC1  436   4.168   6.941   2.486  0.0439  0.0325  0.4299
    3TYR     BB  437   3.941   7.201   2.872 -0.1913  0.0091 -0.0128
    3TYR    SC1  438   4.074   7.477   2.868 -0.0902  0.1728  0.2355
    3TYR    SC2  439   3.998   7.730   2.813 -0.0731  0.1760  0.2266
    3TYR    SC3  440   4.237   7.683   2.931 -0.0113  0.1549  0.0958
    1TYR     BB  441   5.808   2.361   3.430 -0.2922  0.1049 -0.3568
    1TYR    SC1  442   6.071   2.454   3.364 -0.0971  0.0388 -0.1517
    1TYR    SC2  443   6.295   2.597   3.413  0.0313 -0.1807 -0.0866
    1TYR    SC3  444   6.271   2.456   3.185  0.0436 -0.3108 -0.0097
    2ASP     BB  445   5.779   2.332   3.761  0.2739  0.1729 -0.0067
    2ASP    SC1  446   5.462   2.368   3.869 -0.0304  0.0020  0.1174
    3TYR     BB  447   6.024   2.131   3.818 -0.3353  0.1339 -0.0311
    3TYR    SC1  448   6.234   2.062   3.591 -0.0492 -0.1184  0.1142
    3TYR    SC2  449   6.447   2.108   3.431  0.0451  0.3842  0.3625
    3TYR    SC3  450   6.211   2.034   3.323  0.2494  0.1571  0.0527
    1TYR     BB  451   4.746   6.993   3.431  0.0576  0.4476 -0.0012
    1TYR    SC1  452   4.813   6.716   3.277  0.3109  0.1504 -0.1382
    1TYR    SC2  453   4.789   6.592   3.038  0.3237  0.0952 -0.1108
    1TYR    SC3  454   4.935   6.479   3.236 -0.0634 -0.0933  0.0793
    2ASP     BB  455   4.856   7.116   3.698  0.2385 -0.2334  0.3527
    2ASP    SC1  456   4.861   7.047   3.993  0.0349  0.1106  0.0202
    3TYR     BB  457   5.095   7.336   3.596  0.1683  0.1123  0.2436
    3TYR    SC1  458   5.135   7.550   3.807  0.0742 -0.0608  0.1744
    3TYR    SC2  459   5.257   7.703   3.992  0.3100 -0.1112  0.0638
    3TYR    SC3  460   4.996   7.640   4.021  0.3656 -0.2018  0.4302
    1TYR     BB  461   0.524   3.329   3.140 -0.1547 -0.3698  0.1194
    1TYR    SC1  462   0.640   3.306   2.817  0.2394  0.0676 -0.0434
    1TYR    SC2  463   0.879   3.251   2.703  0.2073 -0.1989  0.0102
    1TYR    SC3  464   0.652   3.192   2.572  0.1665 -0.6986  0.2786
    2ASP     BB  465   0.643   3.588   3.286  0.1832  0.0548  0.2019
    2ASP    SC1  466   0.866   3.726   3.042 -0.1987 -0.0470 -0.1106
    3TYR     BB  467   0.533   3.591   3.545  0.0729 -0.1408 -0.0830
    3TYR    SC1  468   0.299   3.408   3.620 -0.0329  0.1136  0.0862
    3TYR    SC2  469   0.199   3.168   3.695  0.2389  0.0524  0.2775
    3TYR    SC3  470   0.035   3.380   3.659  0.0064 -0.1363  0.2009
    1TYR     BB  471   0.793   2.026   3.331 -0.2927  0.0648 -0.0892
    1TYR    SC1  472   0.609   2.202   3.137 -0.0593 -0.2310  0.0880
    1TYR    SC2  473   0.612   2.405   2.959 -0.0809 -0.0493  0.2902
    1TYR    SC3  474   0.423   2.212   2.940 -0.0565 -0.0563  0.0922
    2ASP     BB  475   0.824   2.071   3.595 -0.0129  0.2499 -0.2317
    2ASP    SC1  476   1.003   1.978   3.854 -0.1963 -0.3249 -0.2174
    3TYR     BB  477   0.539   2.121   3.753  0.1257  0.1969  0.2207
    3TYR    SC1  478   0.358   1.910   3.592 -0.1644 -0.0821  0.1214
    3TYR    SC2  479   0.175   1.733   3.685 -0.2895  0.1160  0.2619
    3TYR    SC3  480   0.289   1.695   3.443 -0.1792 -0.2511  0.3633
    1TYR     BB  481   3.655   7.134   3.750 -0.0868 -0.0574  0.0201
    1TYR    SC1  482   3.588   6.866   3.618  0.3957  0.1523  0.2211
    1TYR    SC2  483   3.470   6.662   3.484  0.4588  0.1911  0.1049
    1TYR    SC3  484   3.478   6.659   3.754  0.0738  0.2510  0.1231
    2ASP     BB  485   3.675   7.056   4.035 -0.2935 -0.0489 -0.0385
    2ASP    SC1  486   3.700   7.255   4.304 -0.0526  0.0996 -0.1794
    3TYR     BB  487   3.831   6.805   4.146 -0.1624  0.1245 -0.1246
    3TYR    SC1  488   3.911   6.643   3.913  0.0385  0.1546 -0.1717
    3TYR    SC2  489   3.981   6.389   3.850  0.4150  0.1498  0.2122
    3TYR    SC3  490   4.033   6.589   3.677  0.1357 -0.0216 -0.0841
    1TYR     BB  491   3.299   5.978   2.769  0.1543 -0.4773 -0.3502
    1TYR    SC1  492   3.296   5.730   2.630 -0.1617  0.0206 -0.0301
    1TYR    SC2  493   3.131   5.521   2.589 -0.0699 -0.0132 -0.2423
    1TYR    SC3  494   3.324   5.579   2.408  0.2034 -0.0216  0.0362
    2ASP     BB  495   3.637   6.002   2.731  0.1218  0.0446 -0.4671
    2ASP    SC1  496   3.681   6.183   2.489  0.0205  0.3300  0.0218
    3TYR     BB  497   3.871   5.930   2.951  0.2458 -0.4856 -0.2002
    3TYR    SC1  498   3.951   6.102   3.210  0.3285 -0.0348  0.1179
    3TYR    SC2  499   3.877   6.317   3.355 -0.0379 -0.0476 -0.0373
    3TYR    SC3  500   4.033   6.126   3.466 -0.0627  0.0869  0.2395
    1TYR     BB  501   3.493   6.960   2.753 -0.2048  0.0678  0.0883
    1TYR    SC1  502   3.534   6.690   2.908  0.1696  0.2991  0.1910
    1TYR    SC2  503   3.406   6.527   3.081  0.1789  0.1814  0.0887
    1TYR    SC3  504   3.626   6.440   2.951 -0.0263  0.1403 -0.2438
    2ASP     BB  505   3.521   7.149   2.439  0.3132  0.3155 -0.1598
    2ASP    SC1  506   3.408   6.998   2.239 -0.3248  0.0831 -0.2368
    3TYR     BB  507   3.790   7.285   2.391  0.0585 -0.0770  0.0728
    3TYR    SC1  508   3.746   7.602   2.361 -0.2137 -0.1935 -0.0086
    3TYR    SC2  509   3.700   7.860   2.427 -0.0326 -0.2379  0.3137
    3TYR    SC3  510   3.782   7.798   2.177  0.1116  0.0396  0.2861
    1TYR     BB  511   2.489   4.734   4.702 -0.1203 -0.0851  0.0412
    1TYR    SC1  512   2.567   4.621   5.003 -0.3424  0.2992 -0.2630
    1TYR    SC2  513   2.518   4.425   5.182  0.0381  0.0598 -0.4063
    1TYR    SC3  514   2.675   4.634   5.250  0.0102  0.0780 -0.3974
    2ASP     BB  515   2.231   4.948   4.744  0.0529 -0.3105  0.0232
    2ASP    SC1  516   2.360   5.159   4.975 -0.1708  0.1362 -0.1957
    3TYR     BB  517   1.960   4.765   4.856  0.5133  0.0030 -0.0182
    3TYR    SC1  518   1.714   4.828   4.653  0.1930  0.0225  0.2910
    3TYR    SC2  519   1.509   4.795   4.480  0.4183  0.0720  0.0054
    3TYR    SC3  520   1.582   5.044   4.557  0.0768  0.0404  0.4846
    1TYR     BB  521   8.116   1.814   3.963 -0.0912  0.1144 -0.0015
    1TYR    SC1  522   8.376   1.928   4.065 -0.0010  0.0032  0.0338
    1TYR    SC2  523   8.645   1.930   4.088  0.0005 -0.0363  0.0198
    1TYR    SC3  524   8.493   2.041   4.282  0.0244 -0.0852  0.0669
    2ASP     BB  525   8.233   1.573   3.779 -0.1465  0.1497  0.2081
    2ASP    SC1  526   8.551   1.608   3.734 -0.0762  0.2456 -0.1694
    3TYR     BB  527   8.148   1.340   3.768  0.3285 -0.0176 -0.1474
    3TYR    SC1  528   8.152   1.156   3.567  0.0443  0.1534  0.1681
    3TYR    SC2  529   8.280   0.921   3.530 -0.2654  0.0034  0.0102
    3TYR    SC3  530   8.021   0.947   3.456 -0.3015  0.3284  0.2309
    1TYR     BB  531   4.025   6.472   4.495 -0.1036 -0.0637 -0.2395
    1TYR    SC1  532   3.760   6.344   4.327  0.1588  0.2296 -0.1101
    1TYR    SC2  533   3.602   6.130   4.285  0.2761  0.0545  0.2845
    1TYR    SC3  534   3.537   6.369   4.177  0.0861 -0.1495 -0.0755
    2ASP     BB  535   4.236   6.256   4.449 -0.0043  0.0596 -0.1354
    2ASP    SC1  536   4.478   6.425   4.515  0.4025 -0.0483 -0.1090
    3TYR     BB  537   4.209   6.025   4.356  0.1102  0.0873 -0.1313
    3TYR    SC1  538   3.979   5.985   4.127  0.0225 -0.2068  0.2247
    3TYR    SC2  539   4.055   5.904   3.881  0.2391  0.0418  0.2046
    3TYR    SC3  540   3.802   5.860   3.965  0.0565  0.2541 -0.1966
    1TYR     BB  541   3.201   5.341   3.977 -0.0243  0.1428  0.0393
    1TYR    SC1  542   3.484   5.362   3.876 -0.0087 -0.2910  0.4555
    1TYR    SC2  543   3.677   5.282   3.705 -0.1448  0.4310 -0.1014
    1TYR    SC3  544   3.737   5.448   3.908 -0.0671 -0.0397  0.2841
    2ASP     BB  545   3.096   5.661   4.079  0.0923  0.1520  0.2890
    2ASP    SC1  546   2.845   5.562   4.203  0.0596  0.2666  0.3082
    3TYR     BB  547   3.300   5.889   4.014 -0.1850  0.0891 -0.3262
    3TYR    SC1  548   3.157   6.129   3.987  0.5120 -0.0139  0.2391
    3TYR    SC2  549   3.160   6.399   4.010  0.0851 -0.0011  0.2345
    3TYR    SC3  550   2.930   6.270   3.952  0.3563 -0.3400 -0.1740
    1TYR     BB  551   7.347   4.265   4.849  0.1293 -0.4152  0.1178
    1TYR    SC1  552   7.319   4.254   4.557  0.1250  0.2378 -0.0006
    1TYR    SC2  553   7.174   4.192   4.338  0.0807 -0.0768  0.1111
    1TYR    SC3  554   7.443   4.196   4.325  0.0809 -0.1875  0.0713
    2ASP     BB  555   7.482   4.096   5.023  0.2317 -0.0424 -0.1470
    2ASP    SC1  556   7.605   4.251   5.295 -0.1857  0.1125  0.0573
    3TYR     BB  557   7.391   3.819   5.126 -0.4753  0.1505 -0.0324
    3TYR    SC1  558   7.276   3.760   5.418 -0.2625  0.2121  0.0968
    3TYR    SC2  559   7.261   3.641   5.659 -0.2342 -0.2776 -0.1273
    3TYR    SC3  560   7.037   3.739   5.544 -0.2174  0.1442  0.1720
    1TYR     BB  561   7.849   4.037   4.678 -0.1844  0.1507 -0.2146
    1TYR    SC1  562   7.782   4.307   4.598  0.2232  0.2215  0.0752
    1TYR    SC2  563   7.904   4.497   4.449  0.1045  0.1863 -0.0694
    1TYR    SC3  564   7.665   4.548   4.565  0.2366  0.2438  0.1862
    2ASP     BB  565   7.733   3.792   4.498 -0.2260  0.1006 -0.4271
    2ASP    SC1  566   8.060   3.695   4.428  0.0063  0.3432 -0.1403
    3TYR     BB  567   7.433   3.817   4.635 -0.0312 -0.0476  0.0304
    3TYR    SC1  568   7.210   3.744   4.436 -0.0838  0.1456 -0.1246
    3TYR    SC2  569   6.969   3.709   4.320 -0.0723  0.0796 -0.1298
    3TYR    SC3  570   7.186   3.762   4.167 -0.0518 -0.0362 -0.1417
    1TYR     BB  571  -0.003   2.419   5.103 -0.1330  0.2885  0.0832
    1TYR    SC1  572  -0.038   2.164   4.887  0.0842 -0.2997  0.1154
    1TYR    SC2  573  -0.186   2.019   4.716 -0.0741  0.1832 -0.1819
    1TYR    SC3  574  -0.054   2.238   4.628  0.5028  0.0009  0.1597
    2ASP     BB  575   0.138   2.659   4.851 -0.0655 -0.0210  0.3108
    2ASP    SC1  576   0.229   2.914   4.975  0.0081 -0.1920  0.0897
    3TYR     BB  577   0.123   2.680   4.514  0.0298  0.1302 -0.2255
    3TYR    SC1  578  -0.067   2.603   4.317 -0.0826  0.2490 -0.0867
    3TYR    SC2  579  -0.305   2.624   4.190 -0.1083 -0.1216 -0.1123
    3TYR    SC3  580  -0.180   2.385   4.208  0.0183 -0.0366  0.3481
    1TYR     BB  581   2.724   3.629   3.349  0.2447  0.1202 -0.2949
    1TYR    SC1  582   3.012   3.794   3.354  0.0485 -0.0628  0.0333
    1TYR    SC2  583   3.115   4.003   3.217  0.2093 -0.0760  0.1295
    1TYR    SC3  584   3.062   4.027   3.480 -0.0774 -0.0574  0.0753
    2ASP     BB  585   2.835   3.355   3.195  0.1133  0.1965 -0.0848
    2ASP    SC1  586   2.638   3.147   3.321  0.2180 -0.0689 -0.3448
    3TYR     BB  587   2.886   3.459   2.910 -0.2483 -0.0934  0.1498
    3TYR    SC1  588   2.856   3.751   2.917  0.1347  0.0684  0.2440
    3TYR    SC2  589   2.969   3.972   2.811  0.1242 -0.1401 -0.2355
    3TYR    SC3  590   2.750   3.994   2.965  0.0225  0.1707 -0.4156
    1TYR     BB  591   7.677   1.746   3.731 -0.0846  0.0823  0.1627
    1TYR    SC1  592   7.567   1.858   3.436  0.2004  0.1078 -0.0229
    1TYR    SC2  593   7.593   2.043   3.240 -0.1628  0.1757 -0.0159
    1TYR    SC3  594   7.369   2.038   3.392 -0.1316 -0.2292  0.0309
    2ASP     BB  595   7.669   1.445   3.770  0.3811 -0.2287  0.0968
    2ASP    SC1  596   7.734   1.395   4.071 -0.3631  0.0763 -0.0417
    3TYR     BB  597   7.464   1.164   3.688  0.4077 -0.1953 -0.2451
    3TYR    SC1  598   7.545   0.995   3.461 -0.2732  0.0425  0.0641
    3TYR    SC2  599   7.587   0.731   3.420  0.0916  0.1155 -0.0750
    3TYR    SC3  600   7.491   0.885   3.220 -0.0490  0.1050 -0.0170
    1TYR     BB  601   4.257   4.583   3.084 -0.0715  0.1263  0.0420
    1TYR    SC1  602   4.485   4.644   2.908  0.1166  0.2265  0.3367
    1TYR    SC2  603   4.580   4.737   2.674 -0.2051  0.0640  0.1303
    1TYR    SC3  604   4.749   4.632   2.857  0.0276 -0.0439 -0.1360
    2ASP     BB  605   4.387   4.524   3.388 -0.0249 -0.1759 -0.0794
    2ASP    SC1  606   4.704   4.510   3.318  0.1721 -0.0530  0.1372
    3TYR     BB  607   4.299   4.392   3.616 -0.2644  0.0354 -0.2150
    3TYR    SC1  608   4.260   4.502   3.895 -0.1254  0.1304  0.0111
    3TYR    SC2  609   4.017   4.601   3.955 -0.1765 -0.0484  0.1103
    3TYR    SC3  610   4.173   4.499   4.150  0.0113  0.1302  0.0585
    1TYR     BB  611   5.401   6.490   3.064  0.0043 -0.0550 -0.2460
    1TYR    SC1  612   5.232   6.396   2.861  0.0655 -0.1770  0.1704
    1TYR    SC2  613   4.993   6.279   2.816  0.0156 -0.0634  0.1369
    1TYR    SC3  614   5.089   6.462   2.642  0.0082  0.0806  0.2813
    2ASP     BB  615   5.372   6.699   3.342  0.2606  0.2899 -0.1654
    2ASP    SC1  616   5.562   6.588   3.600  0.2061 -0.1881 -0.1799
    3TYR     BB  617   5.283   6.936   3.339  0.2587  0.0445  0.0151
    3TYR    SC1  618   5.102   7.005   3.071 -0.2131 -0.0457  0.1571
    3TYR    SC2  619   5.076   6.873   2.837 -0.0437 -0.0307  0.1288
    3TYR    SC3  620   4.882   7.042   2.918 -0.0535  0.0514 -0.0574
    1TYR     BB  621   7.331   2.452   3.004  0.1586  0.1214 -0.2451
    1TYR    SC1  622   7.336   2.494   3.308  0.2739  0.0508 -0.0426
    1TYR    SC2  623   7.265   2.539   3.565 -0.2135  0.4024 -0.2211
    1TYR    SC3  624   7.460   2.687   3.452  0.2841 -0.0145  0.0373
    2ASP     BB  625   7.124   2.247   2.939  0.1442 -0.3659 -0.0341
    2ASP    SC1  626   6.890   2.256   2.720 -0.1704 -0.1874  0.0400
    3TYR     BB  627   7.071   1.950   3.032  0.1861 -0.0632  0.2694
    3TYR    SC1  628   6.757   1.907   3.093 -0.0824  0.1790  0.1825
    3TYR    SC2  629   6.499   1.835   3.060 -0.0396  0.2086 -0.3027
    3TYR    SC3  630   6.569   2.095   3.047  0.0048  0.2124 -0.0518
    1TYR     BB  631   2.626   4.741   3.505 -0.1570 -0.2316  0.2045
    1TYR    SC1  632   2.605   4.924   3.770 -0.0926 -0.5520  0.5431
    1TYR    SC2  633   2.440   5.138   3.782  0.0547 -0.3500 -0.3007
    1TYR    SC3  634   2.627   5.102   3.973 -0.3127 -0.0393  0.1455
    2ASP     BB  635   2.311   4.635   3.539  0.1400 -0.4279  0.2449
    2ASP    SC1  636   2.167   4.694   3.267  0.1648  0.1225  0.1645
    3TYR     BB  637   2.085   4.643   3.854 -0.2206  0.1639  0.2051
    3TYR    SC1  638   2.166   4.774   4.078 -0.1655  0.0123  0.1651
    3TYR    SC2  639   2.088   4.773   4.337  0.4064  0.1140  0.3543
    3TYR    SC3  640   2.247   4.971   4.245  0.2020  0.0865 -0.0874
    1TYR     BB  641   7.830   2.257   4.131  0.0197  0.2866  0.6163
    1TYR    SC1  642   8.016   2.213   4.384 -0.1539 -0.2476  0.1254
    1TYR    SC2  643   8.068   2.416   4.553  0.0093 -0.0233 -0.1836
    1TYR    SC3  644   8.195   2.181   4.584  0.0022 -0.0023  0.0296
    2ASP     BB  645   7.609   2.435   4.217 -0.0349  0.0900 -0.0481
    2ASP    SC1  646   7.501   2.665   4.014 -0.0517  0.2087  0.0452
    3TYR     BB  647   7.495   2.437   4.530 -0.0150  0.3235 -0.2110
    3TYR    SC1  648   7.571   2.174   4.729  0.0833 -0.0498  0.2221
    3TYR    SC2  649   7.558   1.938   4.861 -0.0039 -0.0190  0.2691
    3TYR    SC3  650   7.789   2.016   4.747 -0.0354 -0.2407  0.0446
    1TYR     BB  651   4.611   5.471   3.156 -0.0338 -0.3604  0.2490
    1TYR    SC1  652   4.693   5.364   2.872  0.3188  0.2840  0.0932
    1TYR    SC2  653   4.781   5.131   2.767  0.2400  0.2555  0.0893
    1TYR    SC3  654   4.808   5.360   2.628  0.1503  0.2203  0.0126
    2ASP     BB  655   4.859   5.590   3.283 -0.0055  0.0378 -0.1418
    2ASP    SC1  656   5.106   5.423   3.230  0.0006 -0.1409 -0.2234
    3TYR     BB  657   4.911   5.943   3.311 -0.2299  0.0337 -0.0220
    3TYR    SC1  658   4.672   6.039   3.147 -0.2458 -0.0499  0.1013
    3TYR    SC2  659   4.523   6.180   2.972  0.0355 -0.0695 -0.1621
    3TYR    SC3  660   4.414   5.975   3.107 -0.1960 -0.0357 -0.2922
    1TYR     BB  661  -0.966   2.723   4.483 -0.7065  0.2753 -0.0879
    1TYR    SC1  662  -0.892   2.448   4.315 -0.0080  0.0185 -0.0779
    1TYR    SC2  663  -0.734   2.296   4.157 -0.0447 -0.0046 -0.0927
    1TYR    SC3  664  -0.946   2.185   4.281 -0.1226  0.0532 -0.1726
    2ASP     BB  665  -0.673   2.692   4.734 -0.1630 -0.0243  0.2180
    2ASP    SC1  666  -0.835   2.609   4.986 -0.2922 -0.0331 -0.2262
    3TYR     BB  667  -0.459   2.564   4.634  0.0636  0.4013  0.0563
    3TYR    SC1  668  -0.533   2.273   4.581  0.0538 -0.0395 -0.1242
    3TYR    SC2  669  -0.465   2.069   4.417  0.2765 -0.0099 -0.0735
    3TYR    SC3  670  -0.635   2.027   4.623  0.0793 -0.0716 -0.2456
    1TYR     BB  671   3.169   7.166   3.562 -0.0027  0.0777 -0.2022
    1TYR    SC1  672   3.162   7.233   3.803  0.1786 -0.0890 -0.0136
    1TYR    SC2  673   2.968   7.273   3.987 -0.0520 -0.0450 -0.2598
    1TYR    SC3  674   3.228   7.285   4.060 -0.1335  0.2829  0.0010
    2ASP     BB  675   3.242   7.312   3.305 -0.0967  0.0738 -0.0804
    2ASP    SC1  676   3.060   7.558   3.277  0.1831 -0.0793  0.3180
    3TYR     BB  677   3.466   7.196   3.216 -0.1790 -0.0856 -0.2314
    3TYR    SC1  678   3.702   6.962   3.227  0.1434 -0.0926 -0.1817
    3TYR    SC2  679   3.866   6.747   3.213  0.1000 -0.1463  0.0777
    3TYR    SC3  680   3.955   6.978   3.323  0.1402 -0.0324 -0.1827
    1TYR     BB  681   3.315   4.355   4.313 -0.0785 -0.2825 -0.0320
    1TYR    SC1  682   3.286   4.267   4.057  0.0140 -0.2249  0.0007
    1TYR    SC2  683   3.339   4.066   3.884 -0.5019 -0.2028 -0.2058
    1TYR    SC3  684   3.182   4.272   3.808 -0.0221  0.2776  0.0138
    2ASP     BB  685   3.138   4.291   4.631  0.1471 -0.0478 -0.1207
    2ASP    SC1  686   2.939   4.495   4.653 -0.1024  0.0299 -0.0005
    3TYR     BB  687   3.362   4.371   4.870 -0.0347  0.0289 -0.4313
    3TYR    SC1  688   3.312   4.540   5.074  0.0852 -0.1381 -0.0307
    3TYR    SC2  689   3.358   4.669   5.306 -0.0298 -0.1428 -0.0047
    3TYR    SC3  690   3.118   4.693   5.183  0.0199 -0.1653 -0.1070
    1TYR     BB  691   4.911   3.853   5.609 -0.0617 -0.0953  0.1304
    1TYR    SC1  692   4.956   4.183   5.633 -0.0987 -0.2029 -0.1109
    1TYR    SC2  693   4.974   4.444   5.693  0.1362 -0.1481 -0.3907
    1TYR    SC3  694   4.760   4.302   5.774 -0.2361  0.2417 -0.6380
    2ASP     BB  695   4.545   3.861   5.546 -0.0905 -0.2688 -0.1632
    2ASP    SC1  696   4.337   3.614   5.532 -0.2076 -0.3546  0.0516
    3TYR     BB  697   4.546   4.131   5.380  0.2707 -0.0455  0.2642
    3TYR    SC1  698   4.439   4.395   5.421 -0.0589 -0.3291 -0.0722
    3TYR    SC2  699   4.500   4.616   5.563 -0.3695 -0.2629 -0.0321
    3TYR    SC3  700   4.410   4.639   5.309 -0.2825 -0.3527 -0.0718
    1TYR     BB  701   8.303   3.017   3.727 -0.0141  0.1166  0.0259
    1TYR    SC1  702   8.543   3.221   3.750 -0.0794 -0.1772 -0.6864
    1TYR    SC2  703   8.596   3.480   3.691  0.1107 -0.0463 -0.0418
    1TYR    SC3  704   8.791   3.321   3.789 -0.0487 -0.3950 -0.2628
    2ASP     BB  705   8.340   2.771   3.599  0.0340  0.2793  0.2069
    2ASP    SC1  706   8.653   2.694   3.653  0.0898  0.1207 -0.0428
    3TYR     BB  707   8.265   2.589   3.353  0.1337 -0.0674  0.0323
    3TYR    SC1  708   7.964   2.611   3.261  0.1904 -0.3027  0.2573
    3TYR    SC2  709   7.746   2.655   3.108  0.2798 -0.1478  0.1697
    3TYR    SC3  710   7.799   2.407   3.200  0.1073 -0.2007  0.1324
    1TYR     BB  711   4.212   3.984   4.413  0.0399 -0.0655  0.0375
    1TYR    SC1  712   3.923   4.030   4.529  0.0139 -0.3578 -0.0562
    1TYR    SC2  713   3.660   3.990   4.574 -0.0548 -0.1618 -0.2612
    1TYR    SC3  714   3.759   4.241   4.558  0.1882 -0.2303  0.0288
    2ASP     BB  715   4.319   3.748   4.403  0.0215  0.2778  0.1700
    2ASP    SC1  716   4.360   3.551   4.670 -0.0609 -0.0455  0.0236
    3TYR     BB  717   4.206   3.602   4.160  0.0825 -0.2160  0.0093
    3TYR    SC1  718   4.344   3.466   3.977  0.1717  0.1785 -0.0934
    3TYR    SC2  719   4.472   3.233   3.927 -0.0506 -0.0225  0.2258
    3TYR    SC3  720   4.395   3.391   3.722 -0.1078 -0.3467 -0.0133
    1TYR     BB  721   7.289   3.569   3.747 -0.0880 -0.2554 -0.1532
    1TYR    SC1  722   7.246   3.268   3.668 -0.2295  0.1618  0.2365
    1TYR    SC2  723   7.334   3.033   3.769 -0.2413  0.1899  0.3128
    1TYR    SC3  724   7.222   3.041   3.524  0.0189  0.1617  0.1885
    2ASP     BB  725   7.530   3.685   3.542 -0.1271  0.1501 -0.0894
    2ASP    SC1  726   7.482   3.906   3.374  0.0248 -0.0700 -0.1282
    3TYR     BB  727   7.816   3.520   3.580  0.2212  0.2385 -0.1215
    3TYR    SC1  728   7.804   3.248   3.549 -0.5492  0.0386  0.3429
    3TYR    SC2  729   7.714   3.069   3.367  0.2430 -0.2163  0.1522
    3TYR    SC3  730   7.837   2.983   3.591 -0.0187  0.1052  0.4327
    1TYR     BB  731   4.005   5.063   4.016  0.3241 -0.1937 -0.1322
    1TYR    SC1  732   3.768   5.070   4.156  0.0624  0.3353 -0.3019
    1TYR    SC2  733   3.532   4.952   4.097  0.2331 -0.2229  0.0378
    1TYR    SC3  734   3.548   5.127   4.301  0.1093 -0.1582 -0.0072
    2ASP     BB  735   4.311   5.059   4.197  0.0764  0.2491 -0.0300
    2ASP    SC1  736   4.264   5.014   4.515  0.1941  0.1017  0.1175
    3TYR     BB  737   4.580   5.117   4.162 -0.0434  0.2625 -0.0475
    3TYR    SC1  738   4.718   5.242   3.880  0.0503 -0.0286 -0.0324
    3TYR    SC2  739   4.869   5.257   3.657  0.0016  0.0268 -0.0617
    3TYR    SC3  740   4.602   5.292   3.642 -0.0460 -0.2913 -0.0446
    1TYR     BB  741   2.987   6.420   4.453  0.1094 -0.2455 -0.0706
    1TYR    SC1  742   2.743   6.543   4.360 -0.2065 -0.3364  0.2566
    1TYR    SC2  743   2.633   6.568   4.115 -0.1381 -0.2398  0.2348
    1TYR    SC3  744   2.519   6.691   4.327  0.0622  0.0732  0.1691
    2ASP     BB  745   3.234   6.541   4.653 -0.0705  0.2336  0.1695
    2ASP    SC1  746   3.016   6.582   4.909  0.0873 -0.0799  0.1425
    3TYR     BB  747   3.433   6.356   4.708  0.0029 -0.2289 -0.0258
    3TYR    SC1  748   3.628   6.332   4.938 -0.1007 -0.2315  0.2887
    3TYR    SC2  749   3.858   6.467   4.982 -0.1295  0.0275 -0.2495
    3TYR    SC3  750   3.773   6.284   5.161  0.1615  0.3675  0.2741
    1TYR     BB  751   0.577   2.613   4.521  0.0367 -0.3690  0.2239
    1TYR    SC1  752   0.557   2.447   4.760  0.0874  0.1479  0.1265
    1TYR    SC2  753   0.392   2.245   4.831 -0.1746  0.3686  0.1671
    1TYR    SC3  754   0.642   2.256   4.931 -0.0095 -0.1459 -0.1404
    2ASP     BB  755   0.922   2.868   4.489 -0.1623  0.2331 -0.3786
    2ASP    SC1  756   1.070   2.667   4.704 -0.1941 -0.2331  0.0394
    3TYR     BB  757   1.013   2.848   4.280  0.0695 -0.4852  0.2136
    3TYR    SC1  758   0.850   2.631   4.107 -0.1272 -0.2194  0.2313
    3TYR    SC2  759   0.867   2.439   3.919  0.0010  0.1912 -0.2057
    3TYR    SC3  760   0.625   2.529   4.001 -0.0691 -0.2934  0.1784
    1TYR     BB  761   1.970   3.508   2.642 -0.1119 -0.1482 -0.0637
    1TYR    SC1  762   1.868   3.314   2.842 -0.0277  0.0600  0.2337
    1TYR    SC2  763   1.652   3.241   2.988 -0.0790  0.1132  0.1850
    1TYR    SC3  764   1.820   3.053   2.891 -0.1963  0.0604  0.0815
    2ASP     BB  765   1.808   3.792   2.748 -0.0501 -0.0671 -0.1684
    2ASP    SC1  766   1.879   4.092   2.602 -0.4211  0.2083  0.0312
    3TYR     BB  767   1.753   3.796   3.028 -0.0507 -0.2267  0.0737
    3TYR    SC1  768   1.765   4.073   3.115  0.4391 -0.1057  0.0685
    3TYR    SC2  769   1.950   4.260   3.171  0.5073 -0.0277 -0.3766
    3TYR    SC3  770   1.737   4.323   3.020  0.0786 -0.1044  0.1602
    1TYR     BB  771   3.658   5.200   2.218 -0.2378  0.1098  0.3039
    1TYR    SC1  772   3.477   5.183   2.433  0.2243  0.0357  0.1444
    1TYR    SC2  773   3.424   5.130   2.693  0.1575 -0.2841  0.0706
    1TYR    SC3  774   3.277   5.014   2.498  0.4573 -0.3586 -0.1186
    2ASP     BB  775   3.759   5.536   2.170  0.3517 -0.2619  0.2039
    2ASP    SC1  776   3.698   5.650   1.891  0.1845  0.2314  0.3312
    3TYR     BB  777   3.816   5.675   2.444 -0.5819 -0.3170 -0.0899
    3TYR    SC1  778   3.771   5.497   2.691  0.0880 -0.3089  0.1694
    3TYR    SC2  779   3.608   5.498   2.907  0.0818 -0.0831  0.1667
    3TYR    SC3  780   3.852   5.382   2.921  0.0794 -0.0745  0.2932
    1TYR     BB  781   5.410   3.205   3.961 -0.3477 -0.0606  0.0701
    1TYR    SC1  782   5.517   3.264   4.286 -0.0456  0.0399 -0.1075
    1TYR    SC2  783   5.509   3.345   4.543 -0.1804  0.0460 -0.1127
    1TYR    SC3  784   5.579   3.091   4.484 -0.3597 -0.0189 -0.0541
    2ASP     BB  785   5.420   2.899   3.929  0.1877 -0.1195  0.2728
    2ASP    SC1  786   5.658   2.816   3.717 -0.0485 -0.2758 -0.0008
    3TYR     BB  787   5.179   2.756   4.148  0.0425 -0.1695 -0.1591
    3TYR    SC1  788   5.136   2.983   4.356  0.0868  0.0842 -0.5646
    3TYR    SC2  789   5.073   3.246   4.355 -0.0054  0.0659 -0.3149
    3TYR    SC3  790   5.130   3.121   4.588  0.0132 -0.1419 -0.4281
    1TYR     BB  791   3.041   4.745   3.838  0.0475 -0.0898  0.0304
    1TYR    SC1  792   3.317   4.698   3.746 -0.0515 -0.0600  0.4452
    1TYR    SC2  793   3.572   4.624   3.802  0.0222 -0.1892 -0.0121
    1TYR    SC3  794   3.518   4.769   3.580 -0.2723  0.1147  0.2440
    2ASP     BB  795   3.013   4.724   4.146  0.0875 -0.3564  0.2715
    2ASP    SC1  796   3.049   4.991   4.299  0.0499  0.0478  0.2054
    3TYR     BB  797   2.668   4.664   4.206  0.0159 -0.2866 -0.0994
    3TYR    SC1  798   2.599   4.523   3.976 -0.3025 -0.0490  0.0817
    3TYR    SC2  799   2.479   4.300   3.881 -0.2105 -0.0833  0.0437
    3TYR    SC3  800   2.734   4.356   3.812 -0.2132  0.0032  0.1008
    1TYR     BB  801   3.360   5.703   4.862  0.1640 -0.1183  0.0585
    1TYR    SC1  802   3.598   5.644   5.034 -0.1901  0.1238  0.0467
    1TYR    SC2  803   3.735   5.833   5.171  0.0717 -0.0171 -0.0132
    1TYR    SC3  804   3.866   5.621   5.066 -0.1347  0.0428 -0.4104
    2ASP     BB  805   3.193   5.851   5.138  0.3362  0.0165  0.2793
    2ASP    SC1  806   3.183   6.134   5.015  0.1360  0.1384  0.0089
    3TYR     BB  807   3.171   5.648   5.343  0.1001 -0.0774  0.1610
    3TYR    SC1  808   3.432   5.559   5.482  0.3780 -0.1422 -0.2367
    3TYR    SC2  809   3.699   5.560   5.529  0.3430  0.2900  0.0204
    3TYR    SC3  810   3.529   5.465   5.717  0.3089 -0.0680 -0.1782
    1TYR     BB  811   7.188   1.609   3.953 -0.1206 -0.1610  0.1678
    1TYR    SC1  812   7.138   1.610   3.628  0.0583  0.1365  0.0894
    1TYR    SC2  813   7.035   1.612   3.379 -0.0106 -0.2267  0.1090
    1TYR    SC3  814   7.294   1.548   3.417  0.0442 -0.0075  0.1202
    2ASP     BB  815   6.862   1.566   4.071 -0.0281 -0.1502  0.0562
    2ASP    SC1  816   6.782   1.742   4.292 -0.0499  0.0123  0.1461
    3TYR     BB  817   6.732   1.350   3.954  0.1804 -0.0926  0.2625
    3TYR    SC1  818   6.786   1.291   3.697  0.1447 -0.0519 -0.0162
    3TYR    SC2  819   6.694   1.141   3.492 -0.0964  0.1054 -0.0294
    3TYR    SC3  820   6.958   1.194   3.513 -0.0781  0.1683 -0.3553
    1TYR     BB  821   3.452   6.044   3.249 -0.0352  0.0192  0.0484
    1TYR    SC1  822   3.592   5.801   3.300 -0.2405 -0.1558 -0.4304
    1TYR    SC2  823   3.762   5.756   3.506 -0.3438  0.0521 -0.2947
    1TYR    SC3  824   3.699   5.556   3.335 -0.0163 -0.0446 -0.3099
    2ASP     BB  825   3.313   6.146   3.528  0.1862  0.0226  0.2696
    2ASP    SC1  826   3.562   6.181   3.709  0.4294  0.1239  0.1426
    3TYR     BB  827   3.076   6.323   3.483  0.2435 -0.0133  0.0027
    3TYR    SC1  828   2.930   6.267   3.239  0.0873 -0.6611  0.0289
    3TYR    SC2  829   2.997   6.372   2.998 -0.1237  0.0371  0.2428
    3TYR    SC3  830   2.751   6.268   3.037 -0.0905 -0.0732  0.1653
    1TYR     BB  831   3.056   4.514   3.341  0.0661  0.0214 -0.1284
    1TYR    SC1  832   3.328   4.396   3.355  0.2478  0.0711  0.0823
    1TYR    SC2  833   3.514   4.227   3.454  0.0849 -0.1120  0.0832
    1TYR    SC3  834   3.486   4.255   3.188 -0.0408 -0.2648  0.0786
    2ASP     BB  835   3.065   4.817   3.316 -0.1683  0.3063 -0.1190
    2ASP    SC1  836   2.905   4.915   3.057 -0.0126  0.0242  0.0302
    3TYR     BB  837   3.088   5.093   3.514 -0.1943  0.1225  0.1897
    3TYR    SC1  838   2.844   5.273   3.579 -0.0817 -0.1685 -0.0112
    3TYR    SC2  839   2.734   5.462   3.736  0.1028 -0.1736  0.1282
    3TYR    SC3  840   2.708   5.478   3.468  0.0351 -0.0042  0.1427
    1TYR     BB  841   0.466   3.083   4.224  0.2052  0.2908 -0.4010
    1TYR    SC1  842   0.314   2.838   4.044  0.0952 -0.0337 -0.1066
    1TYR    SC2  843   0.327   2.761   3.785 -0.0275  0.1414 -0.1675
    1TYR    SC3  844   0.186   2.615   3.962  0.1209 -0.0226 -0.1786
    2ASP     BB  845   0.388   3.365   4.093  0.2241  0.0666  0.3359
    2ASP    SC1  846   0.251   3.606   4.267  0.1723  0.1580  0.2072
    3TYR     BB  847   0.620   3.496   3.972  0.0519 -0.0309 -0.1115
    3TYR    SC1  848   0.645   3.802   4.059 -0.0398 -0.1172 -0.0546
    3TYR    SC2  849   0.525   4.034   3.992 -0.0512 -0.1233 -0.0553
    3TYR    SC3  850   0.602   3.991   4.246  0.3644  0.0732 -0.1385
    1TYR     BB  851   4.229   4.454   4.652  0.0244 -0.0102  0.1936
    1TYR    SC1  852   4.108   4.680   4.829 -0.0922  0.0825  0.1214
    1TYR    SC2  853   3.881   4.812   4.887 -0.2087 -0.1253  0.1505
    1TYR    SC3  854   4.070   4.781   5.076 -0.1628  0.0324  0.1316
    2ASP     BB  855   4.439   4.284   4.869 -0.1472  0.1793 -0.1995
    2ASP    SC1  856   4.723   4.376   4.990 -0.0639 -0.1526 -0.1437
    3TYR     BB  857   4.371   3.940   4.928 -0.1802  0.1066 -0.0655
    3TYR    SC1  858   4.092   4.028   5.011 -0.0593  0.2999  0.0448
    3TYR    SC2  859   3.929   4.242   5.004 -0.2050  0.1872 -0.2355
    3TYR    SC3  860   3.829   3.996   4.959 -0.0058  0.0800 -0.1108
    1TYR     BB  861   7.502   2.048   2.739  0.1512  0.0878  0.0870
    1TYR    SC1  862   7.767   2.041   2.829  0.0795 -0.0097 -0.1104
    1TYR    SC2  863   7.887   1.847   2.975 -0.3688 -0.0308  0.2571
    1TYR    SC3  864   8.008   2.087   2.943  0.1206 -0.2994 -0.0680
    2ASP     BB  865   7.334   1.793   2.501 -0.1892  0.0573  0.1695
    2ASP    SC1  866   7.058   1.881   2.390  0.0001 -0.0870 -0.0409
    3TYR     BB  867   7.427   1.523   2.505  0.1814 -0.1056  0.0249
    3TYR    SC1  868   7.565   1.355   2.300 -0.0833  0.1001  0.2125
    3TYR    SC2  869   7.684   1.361   2.058 -0.0722  0.1226  0.2185
    3TYR    SC3  870   7.530   1.150   2.128  0.0016  0.0711  0.2287
    1TYR     BB  871   3.215   3.817   4.388 -0.0376 -0.1968 -0.1187
    1TYR    SC1  872   3.460   3.747   4.226 -0.2664 -0.3694 -0.1451
    1TYR    SC2  873   3.705   3.705   4.119 -0.0902 -0.0190  0.0963
    1TYR    SC3  874   3.485   3.604   3.998  0.1633 -0.2936 -0.1557
    2ASP     BB  875   3.182   3.805   4.726 -0.1220 -0.0552 -0.2298
    2ASP    SC1  876   3.378   3.856   4.996 -0.2723 -0.0571  0.1602
    3TYR     BB  877   3.002   3.580   4.838  0.0924 -0.0774 -0.3911
    3TYR    SC1  878   3.146   3.430   5.050  0.0684  0.1322 -0.0378
    3TYR    SC2  879   3.130   3.163   5.084 -0.4903  0.1624  0.0568
    3TYR    SC3  880   3.226   3.320   5.283 -0.0083  0.0347 -0.0570
    1TYR     BB  881   3.173   5.673   3.592  0.1138 -0.1284  0.2070
    1TYR    SC1  882   2.927   5.851   3.652 -0.2071 -0.0632  0.0280
    1TYR    SC2  883   2.727   5.929   3.814 -0.0012  0.3762  0.0907
    1TYR    SC3  884   2.698   5.948   3.547 -0.0489  0.4166  0.0985
    2ASP     BB  885   3.168   5.578   3.270 -0.3751  0.0302 -0.3079
    2ASP    SC1  886   2.995   5.800   3.140 -0.1913  0.1725 -0.1289
    3TYR     BB  887   3.235   5.331   3.115  0.0677  0.1083 -0.2137
    3TYR    SC1  888   3.519   5.176   3.234 -0.0352 -0.0213 -0.2075
    3TYR    SC2  889   3.677   5.027   3.073  0.2052  0.1755 -0.1626
    3TYR    SC3  890   3.779   5.136   3.298 -0.1613 -0.2267  0.2250
    1TYR     BB  891   4.701   2.780   4.058 -0.1518  0.1477  0.0159
    1TYR    SC1  892   4.667   2.968   4.311  0.2297  0.0330 -0.1804
    1TYR    SC2  893   4.650   3.089   4.552 -0.1275 -0.1905 -0.0849
    1TYR    SC3  894   4.595   3.228   4.328  0.0629 -0.0206 -0.0292
    2ASP     BB  895   4.834   2.969   3.797 -0.2862  0.0564 -0.0160
    2ASP    SC1  896   4.617   2.924   3.527 -0.1013 -0.2459 -0.2129
    3TYR     BB  897   4.936   3.200   3.918 -0.3042 -0.1559  0.3151
    3TYR    SC1  898   4.850   3.430   4.028 -0.1944  0.1118  0.1191
    3TYR    SC2  899   4.757   3.618   4.199  0.0347  0.4037 -0.0640
    3TYR    SC3  900   4.724   3.650   3.933  0.0238  0.1491 -0.0966
    1TYR     BB  901   0.849   2.159   4.442 -0.1242  0.4304 -0.0601
    1TYR    SC1  902   1.101   2.324   4.279  0.0173  0.2894 -0.1761
    1TYR    SC2  903   1.309   2.494   4.286  0.0544  0.2400  0.1069
    1TYR    SC3  904   1.274   2.335   4.072  0.0011  0.6147 -0.1777
    2ASP     BB  905   0.627   2.131   4.250  0.0355 -0.0792  0.3016
    2ASP    SC1  906   0.617   1.805   4.177  0.1448  0.3003 -0.1814
    3TYR     BB  907   0.331   2.235   4.260 -0.1345  0.1548  0.3617
    3TYR    SC1  908   0.155   2.035   4.197 -0.1544  0.0579  0.2354
    3TYR    SC2  909  -0.049   1.894   4.305 -0.0600 -0.1998  0.0855
    3TYR    SC3  910   0.087   1.796   4.092 -0.0740  0.1784 -0.1085
    1TYR     BB  911   3.718   5.250   4.740 -0.0805 -0.1195  0.0592
    1TYR    SC1  912   4.008   5.265   4.842  0.1129  0.1519 -0.0557
    1TYR    SC2  913   4.231   5.418   4.848  0.0728  0.2065  0.1509
    1TYR    SC3  914   4.217   5.193   4.997  0.0353  0.1360  0.0426
    2ASP     BB  915   3.459   5.020   4.873  0.1119 -0.2230  0.0504
    2ASP    SC1  916   3.244   5.194   5.033 -0.2924 -0.0924  0.1114
    3TYR     BB  917   3.340   4.807   4.643 -0.3088 -0.2612  0.2736
    3TYR    SC1  918   3.602   4.690   4.487 -0.0569 -0.2550  0.0879
    3TYR    SC2  919   3.727   4.616   4.260 -0.1394  0.0236 -0.0530
    3TYR    SC3  920   3.866   4.737   4.457 -0.0724 -0.1980  0.0400
    1TYR     BB  921   5.967   3.586   4.067  0.1990 -0.0038  0.0383
    1TYR    SC1  922   5.972   3.534   4.361 -0.2781  0.1248 -0.0660
    1TYR    SC2  923   5.953   3.355   4.562 -0.2580  0.0981 -0.0880
    1TYR    SC3  924   6.156   3.533   4.559 -0.4400  0.3162  0.0916
    2ASP     BB  925   5.717   3.742   4.010  0.0945 -0.0255  0.0012
    2ASP    SC1  926   5.686   3.701   3.688  0.0369 -0.1161 -0.0166
    3TYR     BB  927   5.584   3.983   4.144 -0.0522  0.1794  0.2941
    3TYR    SC1  928   5.530   4.184   3.907 -0.3009 -0.0051 -0.0274
    3TYR    SC2  929   5.424   4.307   3.691  0.0647  0.1498 -0.1296
    3TYR    SC3  930   5.690   4.269   3.707  0.0173 -0.1139  0.1722
    1TYR     BB  931   4.572   4.106   4.081  0.0693 -0.0057 -0.1639
    1TYR    SC1  932   4.593   4.379   4.212 -0.1294  0.1332  0.0179
    1TYR    SC2  933   4.661   4.463   4.459  0.1763  0.3487 -0.1327
    1TYR    SC3  934   4.593   4.642   4.269 -0.2131  0.1750 -0.1675
    2ASP     BB  935   4.681   4.141   3.772  0.2422 -0.2096  0.0147
    2ASP    SC1  936   4.651   3.975   3.523 -0.3237 -0.2379  0.2281
    3TYR     BB  937   4.908   4.370   3.730 -0.0141 -0.1091 -0.1993
    3TYR    SC1  938   4.839   4.586   3.871 -0.1684  0.1350  0.3591
    3TYR    SC2  939   4.913   4.844   3.847 -0.2120  0.1206  0.0204
    3TYR    SC3  940   4.652   4.776   3.827 -0.1774  0.0272 -0.1330
    1TYR     BB  941   4.176   4.944   3.528 -0.2987  0.2663  0.0478
    1TYR    SC1  942   3.935   4.759   3.426  0.1714 -0.1781  0.0965
    1TYR    SC2  943   3.854   4.511   3.499 -0.2602 -0.0232  0.1810
    1TYR    SC3  944   3.772   4.617   3.264 -0.0164  0.0153  0.1098
    2ASP     BB  945   4.328   5.048   3.270  0.1978  0.1162 -0.2069
    2ASP    SC1  946   4.628   4.982   3.258  0.0559  0.6347 -0.4017
    3TYR     BB  947   4.223   5.082   3.010 -0.0149 -0.2190  0.0559
    3TYR    SC1  948   4.131   4.980   2.779  0.1597  0.0150 -0.0755
    3TYR    SC2  949   3.919   5.011   2.616  0.1057  0.2832  0.0387
    3TYR    SC3  950   4.126   4.856   2.541 -0.0741  0.1185 -0.1275
    1TYR     BB  951   0.987   3.449   3.642 -0.2237 -0.0167 -0.2492
    1TYR    SC1  952   1.069   3.265   3.383 -0.0104 -0.1104  0.0378
    1TYR    SC2  953   0.989   3.026   3.289  0.3859 -0.1200 -0.3145
    1TYR    SC3  954   1.026   3.233   3.119  0.1267  0.1773 -0.0267
    2ASP     BB  955   1.104   3.717   3.825 -0.1144  0.1274 -0.0390
    2ASP    SC1  956   0.881   3.937   3.655  0.0132 -0.1106 -0.0918
    3TYR     BB  957   1.363   3.712   3.970  0.0327  0.1266 -0.2069
    3TYR    SC1  958   1.609   3.566   3.965 -0.0172 -0.1195  0.0935
    3TYR    SC2  959   1.795   3.534   4.156 -0.0415 -0.0016  0.1378
    3TYR    SC3  960   1.838   3.437   3.908  0.2159  0.2912  0.0603
    1TYR     BB  961   1.374   2.707   3.338  0.0810 -0.0437  0.2675
    1TYR    SC1  962   1.360   2.877   3.065 -0.5624 -0.1844 -0.1587
    1TYR    SC2  963   1.303   3.034   2.854 -0.0687  0.0081 -0.1646
    1TYR    SC3  964   1.391   2.782   2.814  0.0156  0.0413 -0.1906
    2ASP     BB  965   1.030   2.523   3.322 -0.1798 -0.0670 -0.2610
    2ASP    SC1  966   1.078   2.395   3.064 -0.0072 -0.1497  0.0986
    3TYR     BB  967   0.749   2.579   3.442  0.0215  0.3526  0.2111
    3TYR    SC1  968   0.787   2.826   3.658  0.0756  0.0550 -0.0257
    3TYR    SC2  969   0.731   2.990   3.865  0.2780  0.0928  0.0023
    3TYR    SC3  970   0.652   3.055   3.615 -0.2490 -0.1060  0.1022
    1TYR     BB  971   1.510   3.109   4.125  0.0025  0.1851 -0.1383
    1TYR    SC1  972   1.367   2.924   3.944 -0.2225  0.3535 -0.0718
    1TYR    SC2  973   1.250   2.723   3.809 -0.3504  0.1958  0.2605
    1TYR    SC3  974   1.202   2.979   3.738  0.0276  0.1206 -0.3458
    2ASP     BB  975   1.312   3.293   4.263  0.0000 -0.0500  0.0303
    2ASP    SC1  976   1.425   3.471   4.502  0.2534 -0.0183  0.0276
    3TYR     BB  977   1.035   3.359   4.149 -0.0185  0.1337 -0.1718
    3TYR    SC1  978   0.866   3.353   4.385  0.0370 -0.2143 -0.0801
    3TYR    SC2  979   0.690   3.273   4.575 -0.1423 -0.1310 -0.2075
    3TYR    SC3  980   0.681   3.526   4.479  0.0719 -0.1148 -0.1910
    1TYR     BB  981   6.885   2.369   4.243  0.0412  0.0284 -0.2373
    1TYR    SC1  982   7.043   2.602   4.162 -0.0606 -0.2431 -0.4234
    1TYR    SC2  983   7.054   2.859   4.084 -0.0825 -0.0394  0.1895
    1TYR    SC3  984   7.010   2.666   3.902  0.0631  0.3677 -0.3058
    2ASP     BB  985   7.141   2.081   4.194 -0.2272  0.0027 -0.0014
    2ASP    SC1  986   7.173   2.018   4.493 -0.0973  0.1724 -0.0102
    3TYR     BB  987   7.319   2.139   3.933  0.2728  0.1547 -0.2722
    3TYR    SC1  988   7.063   2.127   3.747 -0.2003  0.1403  0.1490
    3TYR    SC2  989   6.930   2.078   3.516  0.1017  0.1623 -0.0376
    3TYR    SC3  990   6.858   1.952   3.744 -0.0770 -0.0113 -0.1863
    1TYR     BB  991   4.709   3.957   4.552 -0.2084 -0.3485 -0.1481
    1TYR    SC1  992   4.829   3.700   4.632  0.3288  0.0731 -0.1428
    1TYR    SC2  993   5.022   3.590   4.786  0.2102 -0.0431 -0.0757
    1TYR    SC3  994   4.821   3.437   4.690  0.2977  0.0202 -0.3751
    2ASP     BB  995   5.003   4.071   4.454  0.1435 -0.1425 -0.0821
    2ASP    SC1  996   5.230   4.008   4.634 -0.0436 -0.1628 -0.0035
    3TYR     BB  997   5.079   4.199   4.189  0.1697  0.1838  0.0495
    3TYR    SC1  998   5.138   3.972   3.943  0.1472 -0.1708  0.1122
    3TYR    SC2  999   5.131   3.965   3.672  0.3798 -0.2457  0.1054
    3TYR    SC3 1000   5.117   3.735   3.813 -0.4928 -0.1786  0.1928
   7.65824   7.65824   7.65824
