Generated by trjconv : Martini system from ../2_Creating_coordinates/TYR-ASN-TYR_aa.pdb t=   0.00000
 1000
    1TYR     BB    1   5.708   4.553   5.395 -0.3359  0.1820 -0.0757
    1TYR    SC1    2   5.804   4.337   5.298  0.0221 -0.0244  0.0681
    1TYR    SC2    3   5.983   4.136   5.277  0.0618 -0.0760  0.6804
    1TYR    SC3    4   5.719   4.081   5.293 -0.0119 -0.0119  0.0047
    2ASN     BB    5   5.384   4.542   5.354 -0.0412  0.2307  0.2673
    2ASN    SC1    6   5.320   4.288   5.539  0.1485 -0.0548 -0.1004
    3TYR     BB    7   5.242   4.827   5.306  0.1252 -0.0033  0.0242
    3TYR    SC1    8   5.494   5.022   5.362  0.0201  0.3711 -0.0195
    3TYR    SC2    9   5.725   5.125   5.266  0.2671  0.0985  0.2538
    3TYR    SC3   10   5.610   5.233   5.486  0.2436  0.1118  0.2349
    1TYR     BB   11   7.442   2.919   3.261 -0.2296  0.1075  0.1149
    1TYR    SC1   12   7.555   2.725   3.412  0.1326  0.0851  0.2035
    1TYR    SC2   13   7.720   2.532   3.503  0.2047  0.1126  0.1332
    1TYR    SC3   14   7.566   2.672   3.676  0.0865 -0.0659  0.1764
    2ASN     BB   15   7.316   2.983   3.009  0.3076 -0.0882  0.1711
    2ASN    SC1   16   7.384   3.324   2.944  0.2040 -0.2004 -0.0406
    3TYR     BB   17   7.234   2.881   2.723  0.1153  0.2089 -0.3496
    3TYR    SC1   18   7.242   2.976   2.447  0.2787  0.0440 -0.0859
    3TYR    SC2   19   7.155   2.941   2.194  0.3026 -0.1636 -0.0677
    3TYR    SC3   20   7.215   3.189   2.283  0.0881 -0.0613 -0.1961
    1TYR     BB   21   0.682   2.663   2.882 -0.0295  0.0269 -0.2025
    1TYR    SC1   22   0.914   2.732   3.083 -0.2480 -0.0158 -0.3300
    1TYR    SC2   23   0.999   2.762   3.338 -0.1396  0.1222 -0.3806
    1TYR    SC3   24   1.070   2.543   3.197 -0.0917  0.1083 -0.3351
    2ASN     BB   25   0.491   2.533   3.091 -0.2139 -0.0187 -0.2318
    2ASN    SC1   26   0.359   2.265   3.060 -0.1058  0.2213 -0.0141
    3TYR     BB   27   0.538   2.604   3.424  0.3170  0.0482  0.2249
    3TYR    SC1   28   0.338   2.383   3.541  0.2349  0.0425  0.0300
    3TYR    SC2   29   0.104   2.265   3.473  0.1605  0.2805 -0.1453
    3TYR    SC3   30   0.308   2.116   3.570 -0.0771  0.0753  0.0561
    1TYR     BB   31   3.175   4.595   4.078  0.1721 -0.0810  0.1989
    1TYR    SC1   32   3.249   4.552   3.777  0.0612  0.1959  0.1776
    1TYR    SC2   33   3.458   4.648   3.636 -0.0219  0.2858  0.1147
    1TYR    SC3   34   3.230   4.580   3.510  0.0609 -0.0750  0.1454
    2ASN     BB   35   3.387   4.738   4.271 -0.1256  0.4192 -0.1014
    2ASN    SC1   36   3.228   4.992   4.381 -0.0893  0.1758  0.3807
    3TYR     BB   37   3.674   4.877   4.176 -0.1029 -0.2968  0.2001
    3TYR    SC1   38   3.813   4.798   3.901  0.1939  0.1437  0.2317
    3TYR    SC2   39   3.889   4.665   3.678  0.0754 -0.0197  0.2866
    3TYR    SC3   40   3.980   4.915   3.724 -0.0958  0.1192 -0.0731
    1TYR     BB   41   7.020   2.626   4.523  0.1807 -0.0021 -0.0786
    1TYR    SC1   42   6.923   2.581   4.777  0.0182  0.0732 -0.1926
    1TYR    SC2   43   6.747   2.438   4.924 -0.0269  0.1560 -0.1646
    1TYR    SC3   44   6.866   2.657   5.030  0.0681  0.1200 -0.1950
    2ASN     BB   45   7.207   2.852   4.456  0.0799  0.4606  0.0151
    2ASN    SC1   46   7.494   2.734   4.350  0.0697 -0.1447  0.1336
    3TYR     BB   47   7.184   3.139   4.378  0.3122  0.1784  0.0714
    3TYR    SC1   48   7.339   3.141   4.101  0.0444 -0.1049  0.0284
    3TYR    SC2   49   7.385   2.985   3.885  0.0437 -0.3575  0.2053
    3TYR    SC3   50   7.527   3.211   3.919  0.2303 -0.4518  0.0748
    1TYR     BB   51   4.829   3.275   3.068  0.0926 -0.0984  0.0309
    1TYR    SC1   52   4.594   3.126   3.228  0.0315 -0.2078 -0.2942
    1TYR    SC2   53   4.476   2.990   3.430  0.2011 -0.0469 -0.0815
    1TYR    SC3   54   4.345   3.026   3.196 -0.0749 -0.0759  0.0639
    2ASN     BB   55   5.030   3.386   3.349 -0.0426 -0.0992  0.0519
    2ASN    SC1   56   4.985   3.216   3.535  0.0124 -0.0618  0.0324
    3TYR     BB   57   5.107   3.647   3.395  0.0661 -0.2264 -0.3520
    3TYR    SC1   58   4.917   3.903   3.318 -0.0353 -0.2006  0.0951
    3TYR    SC2   59   4.788   4.034   3.120  0.1550 -0.1778 -0.0170
    3TYR    SC3   60   4.868   4.167   3.342  0.1750 -0.1457 -0.0433
    1TYR     BB   61   6.496   1.725   4.267  0.1437 -0.0167  0.1637
    1TYR    SC1   62   6.526   1.904   4.023 -0.0474  0.0373 -0.1501
    1TYR    SC2   63   6.453   2.134   3.902  0.0228  0.0390 -0.1888
    1TYR    SC3   64   6.609   1.955   3.772 -0.0584 -0.0452 -0.1709
    2ASN     BB   65   6.713   1.480   4.192 -0.1511 -0.0046  0.1701
    2ASN    SC1   66   6.527   1.200   4.239 -0.0744  0.3889  0.1485
    3TYR     BB   67   6.929   1.572   3.965 -0.0996 -0.0874 -0.0882
    3TYR    SC1   68   7.208   1.642   4.041  0.2365 -0.3054 -0.1317
    3TYR    SC2   69   7.403   1.811   3.963 -0.0800  0.1001 -0.0893
    3TYR    SC3   70   7.324   1.806   4.221 -0.0301 -0.1706 -0.0755
    1TYR     BB   71   7.637   3.975   4.515  0.2784  0.2956  0.3117
    1TYR    SC1   72   7.569   4.062   4.249  0.0309  0.1425  0.1389
    1TYR    SC2   73   7.374   4.027   4.066  0.1091  0.3266  0.0176
    1TYR    SC3   74   7.530   4.247   4.056  0.1592  0.3047  0.2656
    2ASN     BB   75   7.494   3.885   4.824 -0.1051  0.1236 -0.2448
    2ASN    SC1   76   7.641   4.087   5.046  0.0836 -0.2806 -0.2221
    3TYR     BB   77   7.308   3.637   4.812 -0.3666 -0.0268 -0.0130
    3TYR    SC1   78   7.142   3.569   5.047 -0.0642  0.2354 -0.0219
    3TYR    SC2   79   6.933   3.575   5.217 -0.2231 -0.1750 -0.1888
    3TYR    SC3   80   7.141   3.409   5.265 -0.0897 -0.0147 -0.2009
    1TYR     BB   81   3.647   5.173   3.122  0.0714  0.0563 -0.5844
    1TYR    SC1   82   3.390   5.224   2.986 -0.0254  0.0341  0.1461
    1TYR    SC2   83   3.251   5.134   2.772  0.3216 -0.1006 -0.0327
    1TYR    SC3   84   3.384   5.369   2.758  0.5343 -0.2181 -0.0543
    2ASN     BB   85   3.764   4.895   3.240 -0.0346 -0.2790  0.0706
    2ASN    SC1   86   4.080   4.989   3.258  0.1009  0.0059 -0.1207
    3TYR     BB   87   3.667   4.684   3.134  0.0509  0.0422 -0.0577
    3TYR    SC1   88   3.749   4.436   3.277 -0.1134 -0.0802 -0.1045
    3TYR    SC2   89   3.704   4.190   3.378 -0.1892  0.1321  0.4223
    3TYR    SC3   90   3.947   4.305   3.404 -0.1365  0.0981  0.1248
    1TYR     BB   91   6.859   3.793   3.607 -0.2788  0.2719  0.2137
    1TYR    SC1   92   7.152   3.727   3.698  0.2222  0.0345 -0.1129
    1TYR    SC2   93   7.267   3.548   3.864 -0.1038  0.1991  0.3131
    1TYR    SC3   94   7.420   3.726   3.731  0.1958 -0.1787  0.1267
    2ASN     BB   95   6.804   3.647   3.283  0.0409  0.1736  0.0338
    2ASN    SC1   96   6.524   3.548   3.250 -0.0611  0.0407 -0.0003
    3TYR     BB   97   6.985   3.556   3.049  0.5369 -0.3554  0.0887
    3TYR    SC1   98   7.061   3.724   2.822 -0.0541 -0.2443 -0.2090
    3TYR    SC2   99   7.082   3.915   2.633  0.1536  0.0707  0.1162
    3TYR    SC3  100   7.304   3.803   2.736  0.0359 -0.2880 -0.0042
    1TYR     BB  101   2.114   2.577   3.606 -0.0008  0.2075  0.2383
    1TYR    SC1  102   2.213   2.354   3.459  0.4425  0.1577 -0.4066
    1TYR    SC2  103   2.403   2.161   3.453  0.2701 -0.0236 -0.2196
    1TYR    SC3  104   2.201   2.159   3.274  0.1043 -0.1969 -0.0385
    2ASN     BB  105   1.955   2.736   3.310 -0.0348 -0.0256 -0.0153
    2ASN    SC1  106   1.881   2.564   3.073 -0.2328 -0.0436  0.1211
    3TYR     BB  107   1.870   3.030   3.243  0.0110 -0.4734 -0.0769
    3TYR    SC1  108   1.636   3.051   3.029 -0.0520  0.1730 -0.1479
    3TYR    SC2  109   1.461   3.089   2.827  0.0299  0.0436 -0.2452
    3TYR    SC3  110   1.469   2.851   2.954 -0.0357  0.1309 -0.0737
    1TYR     BB  111   0.638   4.192   3.169 -0.0618 -0.2890  0.0358
    1TYR    SC1  112   0.734   4.200   2.872 -0.0783 -0.2043 -0.1468
    1TYR    SC2  113   0.920   4.365   2.764 -0.2130 -0.1179 -0.2499
    1TYR    SC3  114   0.895   4.111   2.674 -0.0139 -0.1937 -0.0998
    2ASN     BB  115   0.857   4.096   3.346 -0.0652 -0.0124  0.0015
    2ASN    SC1  116   0.862   4.248   3.607 -0.0317  0.0751 -0.0177
    3TYR     BB  117   1.069   3.860   3.179  0.2312 -0.2778  0.0652
    3TYR    SC1  118   1.212   4.034   2.954 -0.0376 -0.2957 -0.3991
    3TYR    SC2  119   1.349   4.023   2.722  0.4674  0.0147 -0.1381
    3TYR    SC3  120   1.480   4.068   2.953 -0.0090 -0.3581  0.2300
    1TYR     BB  121   4.989   4.270   4.316 -0.0020 -0.2622  0.1466
    1TYR    SC1  122   5.089   4.026   4.417  0.0008 -0.1008 -0.1258
    1TYR    SC2  123   5.014   3.770   4.464  0.0542 -0.1102 -0.0902
    1TYR    SC3  124   5.164   3.902   4.645 -0.2249  0.0481  0.0341
    2ASN     BB  125   4.747   4.428   4.496 -0.6296  0.2253 -0.2596
    2ASN    SC1  126   4.763   4.235   4.786  0.2538 -0.2700  0.0699
    3TYR     BB  127   4.510   4.631   4.407 -0.0305 -0.1727 -0.2177
    3TYR    SC1  128   4.580   4.956   4.459 -0.2015 -0.0909  0.1166
    3TYR    SC2  129   4.629   5.191   4.337  0.0120 -0.1733  0.0370
    3TYR    SC3  130   4.778   5.116   4.550 -0.3300 -0.0496  0.3339
    1TYR     BB  131   5.900   4.930   3.406 -0.0170 -0.1750 -0.2557
    1TYR    SC1  132   5.783   5.136   3.210 -0.1037 -0.0916 -0.0711
    1TYR    SC2  133   5.790   5.397   3.141  0.3161 -0.0726  0.0107
    1TYR    SC3  134   5.561   5.256   3.116  0.1128  0.2712 -0.1413
    2ASN     BB  135   5.765   4.971   3.679 -0.2810  0.0502  0.4989
    2ASN    SC1  136   5.453   5.078   3.651  0.4306  0.1562  0.2393
    3TYR     BB  137   5.817   4.906   4.024 -0.0137 -0.1519  0.4166
    3TYR    SC1  138   5.594   5.036   4.165 -0.2362 -0.0616 -0.1129
    3TYR    SC2  139   5.388   5.205   4.120 -0.3907 -0.1481  0.2352
    3TYR    SC3  140   5.510   5.202   4.362  0.0220 -0.1020  0.0375
    1TYR     BB  141   6.239   5.184   4.002 -0.1733  0.2078  0.1833
    1TYR    SC1  142   6.367   5.477   3.954  0.4109  0.2195 -0.1037
    1TYR    SC2  143   6.486   5.650   3.785 -0.0981  0.3681 -0.3374
    1TYR    SC3  144   6.265   5.725   3.921  0.0638  0.1115  0.0901
    2ASN     BB  145   6.445   5.074   4.204  0.1619  0.0106 -0.0480
    2ASN    SC1  146   6.690   4.921   4.105  0.0016  0.2110  0.1633
    3TYR     BB  147   6.316   4.957   4.464  0.1799  0.3725 -0.1282
    3TYR    SC1  148   6.043   4.782   4.462  0.1063 -0.1164  0.0046
    3TYR    SC2  149   5.923   4.543   4.429 -0.1929  0.0560 -0.2241
    3TYR    SC3  150   5.774   4.766   4.456  0.0811  0.2384 -0.1642
    1TYR     BB  151   0.458   3.946   3.739 -0.0108  0.4641 -0.2284
    1TYR    SC1  152   0.346   4.161   3.640 -0.0229 -0.2055  0.0565
    1TYR    SC2  153   0.242   4.246   3.405  0.0491 -0.3077 -0.0135
    1TYR    SC3  154   0.127   4.319   3.638  0.2018  0.1172 -0.0614
    2ASN     BB  155   0.387   3.595   3.585  0.1140 -0.0225 -0.2370
    2ASN    SC1  156   0.597   3.646   3.390 -0.7249  0.1619  0.1060
    3TYR     BB  157   0.217   3.452   3.810  0.1002  0.1480  0.4637
    3TYR    SC1  158   0.274   3.160   3.766  0.2596  0.0972 -0.2449
    3TYR    SC2  159   0.213   2.951   3.926  0.2999  0.1895 -0.1058
    3TYR    SC3  160   0.282   2.909   3.668  0.4244  0.0213 -0.0471
    1TYR     BB  161   4.655   3.577   3.623  0.2092 -0.1460 -0.0354
    1TYR    SC1  162   4.802   3.817   3.788  0.4889 -0.0748 -0.0773
    1TYR    SC2  163   4.848   3.930   4.028 -0.3083  0.2543 -0.0401
    1TYR    SC3  164   4.745   4.078   3.828 -0.3419 -0.1755 -0.3566
    2ASN     BB  165   4.427   3.809   3.368  0.1762  0.1648  0.2092
    2ASN    SC1  166   4.469   3.589   3.130  0.1022 -0.0557  0.0966
    3TYR     BB  167   4.343   4.029   3.433  0.0087  0.2431  0.1694
    3TYR    SC1  168   4.397   4.320   3.463 -0.0036  0.1614 -0.0758
    3TYR    SC2  169   4.541   4.533   3.546  0.0850  0.0158  0.1539
    3TYR    SC3  170   4.278   4.560   3.494  0.1361  0.2246 -0.0121
    1TYR     BB  171   2.314   4.296   2.962 -0.2392 -0.0332  0.0073
    1TYR    SC1  172   2.064   4.360   2.768 -0.1995 -0.1358 -0.2227
    1TYR    SC2  173   1.813   4.269   2.724 -0.2397 -0.0545 -0.1632
    1TYR    SC3  174   1.942   4.411   2.533 -0.3797  0.2204 -0.0594
    2ASN     BB  175   2.410   3.998   3.029  0.1134 -0.1038  0.4135
    2ASN    SC1  176   2.278   3.855   2.776  0.2340  0.1146  0.3015
    3TYR     BB  177   2.764   4.074   3.156  0.2163  0.0728  0.2830
    3TYR    SC1  178   2.796   3.819   3.332 -0.1355  0.1081  0.0237
    3TYR    SC2  179   3.013   3.737   3.471 -0.1127  0.2232  0.0572
    3TYR    SC3  180   2.803   3.571   3.440 -0.0533  0.1401  0.0940
    1TYR     BB  181   4.060   2.708   3.970 -0.0300  0.0683 -0.5763
    1TYR    SC1  182   3.796   2.757   4.081  0.4534 -0.1568 -0.0921
    1TYR    SC2  183   3.551   2.800   3.975  0.4611 -0.2059 -0.1303
    1TYR    SC3  184   3.575   2.738   4.235  0.4470 -0.0191 -0.0826
    2ASN     BB  185   4.145   2.982   3.813 -0.0390  0.0714  0.2034
    2ASN    SC1  186   3.957   2.965   3.584  0.0212  0.0268 -0.2391
    3TYR     BB  187   4.289   3.139   3.925 -0.1515  0.4030  0.0551
    3TYR    SC1  188   4.397   3.030   4.208  0.1316  0.0564 -0.1326
    3TYR    SC2  189   4.531   3.001   4.440  0.2069  0.1562 -0.1625
    3TYR    SC3  190   4.394   2.793   4.337  0.0420  0.1538  0.0497
    1TYR     BB  191   2.658   2.678   4.371 -0.1350 -0.1164  0.3882
    1TYR    SC1  192   2.377   2.604   4.290 -0.0599  0.1236 -0.1940
    1TYR    SC2  193   2.176   2.563   4.114 -0.1940  0.0696 -0.0304
    1TYR    SC3  194   2.180   2.429   4.350  0.1620 -0.1129 -0.1314
    2ASN     BB  195   2.700   3.001   4.295  0.1241 -0.0384 -0.0372
    2ASN    SC1  196   2.689   3.138   4.563  0.0233 -0.1989  0.2149
    3TYR     BB  197   2.442   3.038   4.022 -0.1080  0.0087 -0.0421
    3TYR    SC1  198   2.521   2.773   3.880  0.0597 -0.0367 -0.1370
    3TYR    SC2  199   2.542   2.534   3.757 -0.2790 -0.0734 -0.1353
    3TYR    SC3  200   2.595   2.761   3.620 -0.0383 -0.1417 -0.1611
    1TYR     BB  201   0.580   3.082   3.255 -0.0636  0.0027  0.1618
    1TYR    SC1  202   0.680   3.091   3.523  0.2570 -0.2667 -0.0567
    1TYR    SC2  203   0.728   3.035   3.783 -0.1139  0.0294  0.0865
    1TYR    SC3  204   0.826   3.262   3.673  0.0881 -0.1215 -0.0538
    2ASN     BB  205   0.648   3.304   2.947 -0.1373 -0.1630  0.0771
    2ASN    SC1  206   0.463   3.162   2.779 -0.0532 -0.0480 -0.0508
    3TYR     BB  207   0.696   3.681   2.898 -0.0453  0.0535 -0.0678
    3TYR    SC1  208   0.976   3.659   2.738 -0.0591 -0.2434 -0.1255
    3TYR    SC2  209   1.214   3.567   2.649  0.0663 -0.1125  0.0645
    3TYR    SC3  210   1.079   3.752   2.506  0.0277 -0.2590 -0.0934
    1TYR     BB  211   5.143   4.544   4.735 -0.0876  0.0675 -0.0771
    1TYR    SC1  212   4.929   4.720   4.850  0.0666  0.3857 -0.2652
    1TYR    SC2  213   4.820   4.903   5.015 -0.1227 -0.0200  0.0809
    1TYR    SC3  214   4.663   4.764   4.846  0.0084  0.0747 -0.1234
    2ASN     BB  215   5.367   4.464   4.879 -0.1020 -0.1669  0.0801
    2ASN    SC1  216   5.323   4.211   5.042  0.0963  0.2959  0.2184
    3TYR     BB  217   5.671   4.486   4.848 -0.2277  0.1514  0.0091
    3TYR    SC1  218   5.835   4.709   4.918  0.1142 -0.0450  0.1802
    3TYR    SC2  219   6.038   4.885   4.933  0.1091 -0.0021 -0.1620
    3TYR    SC3  220   5.786   4.972   4.885  0.0433 -0.0747  0.0376
    1TYR     BB  221   2.595   2.196   4.081 -0.2244 -0.1228  0.1938
    1TYR    SC1  222   2.330   2.161   3.975 -0.0774  0.0314  0.1855
    1TYR    SC2  223   2.107   2.098   3.834 -0.2200  0.3441  0.2589
    1TYR    SC3  224   2.113   2.060   4.102  0.0819 -0.3334  0.1846
    2ASN     BB  225   2.506   2.076   4.467  0.1167 -0.1571  0.1648
    2ASN    SC1  226   2.440   1.817   4.375  0.0421 -0.0845 -0.0691
    3TYR     BB  227   2.524   2.247   4.673 -0.1899  0.0526 -0.1612
    3TYR    SC1  228   2.515   2.523   4.803 -0.2250  0.1472 -0.0550
    3TYR    SC2  229   2.370   2.749   4.773 -0.0978  0.2137 -0.1788
    3TYR    SC3  230   2.581   2.745   4.941 -0.1364  0.1680 -0.1306
    1TYR     BB  231   0.504   4.261   4.512 -0.2474  0.0103  0.4261
    1TYR    SC1  232   0.327   4.104   4.331  0.0265 -0.4307  0.1208
    1TYR    SC2  233   0.142   4.079   4.136 -0.0332 -0.1360  0.1342
    1TYR    SC3  234   0.294   3.867   4.206 -0.1391 -0.2951 -0.1022
    2ASN     BB  235   0.342   4.434   4.755  0.0489 -0.1257  0.0720
    2ASN    SC1  236   0.504   4.696   4.927 -0.4025  0.0928  0.2914
    3TYR     BB  237   0.046   4.234   4.734  0.1943 -0.0705 -0.2178
    3TYR    SC1  238   0.142   3.962   4.739  0.0195 -0.2179 -0.1241
    3TYR    SC2  239   0.145   3.727   4.606 -0.2668 -0.2908 -0.0132
    3TYR    SC3  240   0.181   3.732   4.874 -0.0168 -0.1783 -0.0444
    1TYR     BB  241   7.106   4.218   3.722  0.0217  0.4318  0.0527
    1TYR    SC1  242   7.386   4.190   3.582 -0.2713  0.0125 -0.3805
    1TYR    SC2  243   7.649   4.162   3.634 -0.3067 -0.1379 -0.2790
    1TYR    SC3  244   7.570   4.281   3.406 -0.1506  0.1071 -0.2099
    2ASN     BB  245   6.831   4.254   3.550 -0.0980 -0.1569  0.4368
    2ASN    SC1  246   6.637   4.446   3.761  0.1010  0.2410  0.5390
    3TYR     BB  247   6.894   4.176   3.278 -0.2592  0.1998  0.0278
    3TYR    SC1  248   7.161   4.026   3.233  0.1379  0.4023  0.0451
    3TYR    SC2  249   7.319   3.810   3.267 -0.3038  0.0618  0.0394
    3TYR    SC3  250   7.396   4.007   3.100  0.2633  0.0817  0.2951
    1TYR     BB  251   1.715   2.430   3.951 -0.1089  0.2359  0.0170
    1TYR    SC1  252   1.660   2.126   3.998 -0.0873 -0.0650  0.0763
    1TYR    SC2  253   1.456   1.948   4.007  0.0502 -0.2174  0.4394
    1TYR    SC3  254   1.707   1.870   4.070  0.2602 -0.0637 -0.1161
    2ASN     BB  255   1.664   2.460   3.589 -0.0826 -0.2387 -0.2565
    2ASN    SC1  256   1.716   2.157   3.535  0.1878  0.3328 -0.0337
    3TYR     BB  257   1.508   2.658   3.419  0.1844  0.0380 -0.0070
    3TYR    SC1  258   1.428   2.950   3.458 -0.0694 -0.1284 -0.0750
    3TYR    SC2  259   1.238   3.073   3.606  0.0446 -0.0790  0.0323
    3TYR    SC3  260   1.454   3.211   3.522  0.1600 -0.1973  0.1301
    1TYR     BB  261   6.210   4.593   5.341 -0.1483 -0.3940  0.0161
    1TYR    SC1  262   6.198   4.437   5.076 -0.1316 -0.3598 -0.0550
    1TYR    SC2  263   6.153   4.365   4.820  0.0380 -0.3414 -0.0912
    1TYR    SC3  264   6.405   4.364   4.919  0.0163 -0.0372 -0.0202
    2ASN     BB  265   6.175   4.879   5.470 -0.0484  0.0495  0.0295
    2ASN    SC1  266   5.972   4.925   5.714  0.0431 -0.1931  0.2473
    3TYR     BB  267   6.319   5.082   5.392  0.1722  0.0095  0.0955
    3TYR    SC1  268   6.146   5.303   5.264 -0.2598 -0.1036 -0.0443
    3TYR    SC2  269   5.985   5.437   5.095 -0.2313 -0.0325 -0.0158
    3TYR    SC3  270   6.026   5.530   5.346  0.0249  0.0718 -0.0925
    1TYR     BB  271   3.542   3.226   2.585 -0.1517  0.2676  0.2408
    1TYR    SC1  272   3.870   3.333   2.600 -0.1348  0.0227  0.0826
    1TYR    SC2  273   4.018   3.414   2.811 -0.1743  0.1158  0.0749
    1TYR    SC3  274   4.108   3.455   2.560 -0.1451  0.0394  0.0728
    2ASN     BB  275   3.482   3.105   2.885 -0.1635 -0.3191 -0.0097
    2ASN    SC1  276   3.253   2.928   2.873 -0.0379  0.0402 -0.3315
    3TYR     BB  277   3.700   3.271   3.147  0.1744 -0.1528 -0.2720
    3TYR    SC1  278   3.526   3.247   3.427  0.0872  0.0195  0.0397
    3TYR    SC2  279   3.261   3.201   3.415  0.0516  0.2087  0.0707
    3TYR    SC3  280   3.412   3.067   3.593  0.0250 -0.1011 -0.1306
    1TYR     BB  281   6.680   2.425   4.217  0.0189  0.1545 -0.3624
    1TYR    SC1  282   6.841   2.213   4.139  0.0318 -0.0134  0.0262
    1TYR    SC2  283   6.936   1.980   4.237  0.1151 -0.1025 -0.2530
    1TYR    SC3  284   7.086   2.126   4.066  0.0267  0.1122 -0.1522
    2ASN     BB  285   6.422   2.300   4.384 -0.0251  0.0802 -0.1031
    2ASN    SC1  286   6.577   2.101   4.564  0.2471  0.2304  0.2057
    3TYR     BB  287   6.130   2.378   4.479  0.0980 -0.1131  0.0578
    3TYR    SC1  288   6.126   2.288   4.812 -0.4286 -0.2321 -0.0342
    3TYR    SC2  289   6.097   2.137   5.034 -0.1545 -0.1183  0.0843
    3TYR    SC3  290   6.254   2.356   5.039 -0.5002  0.1462 -0.0989
    1TYR     BB  291  -0.237   2.658   3.656  0.0266 -0.1357 -0.0371
    1TYR    SC1  292  -0.034   2.680   3.447  0.2050 -0.1510  0.0276
    1TYR    SC2  293  -0.010   2.594   3.192 -0.1026 -0.1399 -0.0099
    1TYR    SC3  294   0.101   2.829   3.267 -0.0654 -0.1126 -0.1484
    2ASN     BB  295  -0.180   2.549   3.951 -0.2417  0.2280  0.1963
    2ASN    SC1  296  -0.453   2.512   4.086  0.0594 -0.0347 -0.1491
    3TYR     BB  297   0.088   2.266   4.010 -0.2054 -0.0574  0.1645
    3TYR    SC1  298  -0.088   2.077   4.154  0.2706 -0.3506 -0.2109
    3TYR    SC2  299  -0.357   2.058   4.149  0.2490 -0.1677 -0.0049
    3TYR    SC3  300  -0.220   1.975   4.367  0.3198  0.1191  0.0633
    1TYR     BB  301   0.966   3.180   4.615  0.0154  0.1086  0.0174
    1TYR    SC1  302   1.076   3.083   4.865  0.1064  0.1646 -0.0079
    1TYR    SC2  303   1.041   3.026   5.126 -0.0183  0.1547 -0.0258
    1TYR    SC3  304   1.272   2.959   5.002 -0.0428 -0.0375  0.0280
    2ASN     BB  305   1.130   3.495   4.525  0.2296 -0.0845  0.2492
    2ASN    SC1  306   1.164   3.619   4.796 -0.0495 -0.0209 -0.1408
    3TYR     BB  307   1.148   3.662   4.214 -0.2236 -0.1341 -0.1684
    3TYR    SC1  308   1.200   3.673   3.918 -0.3678 -0.0027  0.0993
    3TYR    SC2  309   1.001   3.730   3.745 -0.0319  0.1277 -0.2639
    3TYR    SC3  310   1.163   3.519   3.699 -0.2413 -0.1480  0.1772
    1TYR     BB  311   3.239   4.154   3.081  0.0236  0.0029  0.0118
    1TYR    SC1  312   3.154   4.141   3.382  0.0156 -0.0027  0.0632
    1TYR    SC2  313   2.970   4.192   3.573 -0.0141  0.0322  0.0255
    1TYR    SC3  314   3.214   4.101   3.642 -0.0185  0.0623  0.0816
    2ASN     BB  315   3.105   3.786   2.928 -0.0252  0.0468  0.0774
    2ASN    SC1  316   2.920   3.886   2.699  0.2688  0.0070 -0.0158
    3TYR     BB  317   3.113   3.502   2.949 -0.0783 -0.0264  0.1719
    3TYR    SC1  318   3.013   3.396   2.682 -0.0208 -0.0204 -0.1671
    3TYR    SC2  319   2.924   3.150   2.613 -0.0976 -0.0958  0.1742
    3TYR    SC3  320   2.781   3.369   2.547 -0.0496 -0.1404 -0.0955
    1TYR     BB  321   1.419   4.837   3.492  0.0089 -0.0643 -0.2514
    1TYR    SC1  322   1.461   4.549   3.380 -0.1101  0.2480 -0.3520
    1TYR    SC2  323   1.589   4.314   3.339 -0.1724  0.1575 -0.0648
    1TYR    SC3  324   1.319   4.321   3.342 -0.1723  0.1691  0.2334
    2ASN     BB  325   1.180   4.980   3.734  0.1655 -0.0817 -0.1156
    2ASN    SC1  326   1.011   4.682   3.707  0.1709 -0.0489 -0.1075
    3TYR     BB  327   1.072   5.364   3.734 -0.1527  0.0660  0.2795
    3TYR    SC1  328   0.782   5.541   3.734  0.1006  0.1485  0.2429
    3TYR    SC2  329   0.521   5.578   3.788  0.0656  0.0494  0.1453
    3TYR    SC3  330   0.601   5.526   3.535  0.1684 -0.0189  0.1910
    1TYR     BB  331   6.676   2.748   3.813  0.2172 -0.1669  0.1801
    1TYR    SC1  332   6.413   2.716   3.940 -0.2196 -0.0059 -0.1320
    1TYR    SC2  333   6.237   2.725   4.144  0.3090 -0.0759  0.3629
    1TYR    SC3  334   6.232   2.520   3.970 -0.1660 -0.0056  0.2761
    2ASN     BB  335   6.906   2.854   4.045 -0.1564  0.0352  0.1440
    2ASN    SC1  336   7.099   2.631   4.023  0.2368 -0.1954 -0.0300
    3TYR     BB  337   6.730   2.987   4.283 -0.0711 -0.4686  0.2245
    3TYR    SC1  338   6.513   3.113   4.131 -0.2009  0.3737  0.2700
    3TYR    SC2  339   6.246   3.144   4.147 -0.2846  0.1467 -0.3493
    3TYR    SC3  340   6.368   3.150   3.907  0.2354 -0.0458 -0.1085
    1TYR     BB  341   1.780   5.049   3.258 -0.0746  0.1072 -0.0540
    1TYR    SC1  342   1.795   4.865   3.039 -0.3461 -0.0564  0.0339
    1TYR    SC2  343   1.778   4.723   2.809  0.0179 -0.3191  0.1578
    1TYR    SC3  344   1.782   4.596   3.048  0.0563 -0.0766  0.2912
    2ASN     BB  345   1.938   5.314   3.260  0.1071  0.1780 -0.0764
    2ASN    SC1  346   1.816   5.570   3.088  0.1437  0.1438 -0.0328
    3TYR     BB  347   2.290   5.381   3.231 -0.0229  0.0148 -0.0754
    3TYR    SC1  348   2.366   5.560   3.036  0.0632  0.0971 -0.0080
    3TYR    SC2  349   2.537   5.725   2.908  0.1664 -0.1176 -0.1565
    3TYR    SC3  350   2.289   5.685   2.808  0.0921  0.0474 -0.0452
    1TYR     BB  351   5.481   3.537   2.445 -0.0991  0.0521 -0.0110
    1TYR    SC1  352   5.352   3.801   2.371 -0.3990  0.1116 -0.3406
    1TYR    SC2  353   5.359   4.068   2.415  0.2161  0.0385  0.1895
    1TYR    SC3  354   5.134   3.929   2.468 -0.1038  0.4308 -0.0622
    2ASN     BB  355   5.707   3.457   2.564  0.2926  0.2041  0.0791
    2ASN    SC1  356   5.666   3.262   2.803 -0.3973 -0.2001  0.1047
    3TYR     BB  357   5.958   3.685   2.502  0.2850 -0.1097  0.1530
    3TYR    SC1  358   5.804   3.861   2.325 -0.0046 -0.0495  0.0327
    3TYR    SC2  359   5.702   3.852   2.075 -0.0658 -0.1550  0.0605
    3TYR    SC3  360   5.750   4.091   2.194 -0.2684 -0.1033  0.0411
    1TYR     BB  361   6.076   4.457   3.538 -0.1241 -0.0216 -0.1821
    1TYR    SC1  362   6.292   4.321   3.368 -0.1960  0.0936 -0.0791
    1TYR    SC2  363   6.421   4.213   3.157  0.1465  0.4427 -0.0628
    1TYR    SC3  364   6.411   4.080   3.392  0.1313  0.2379 -0.1765
    2ASN     BB  365   6.188   4.658   3.743 -0.0293  0.0063  0.0291
    2ASN    SC1  366   6.247   4.647   4.009 -0.2447  0.2639 -0.3627
    3TYR     BB  367   6.340   4.916   3.599  0.0083 -0.1344  0.1766
    3TYR    SC1  368   6.588   4.822   3.393  0.0217 -0.0515  0.1760
    3TYR    SC2  369   6.650   4.628   3.217  0.1595 -0.1153  0.2927
    3TYR    SC3  370   6.758   4.873   3.190 -0.1509  0.0020  0.0419
    1TYR     BB  371  -0.454   3.943   3.142 -0.1130 -0.0668  0.2034
    1TYR    SC1  372  -0.522   3.873   3.440  0.1406  0.5897  0.1973
    1TYR    SC2  373  -0.583   3.668   3.605  0.0742  0.4413 -0.0045
    1TYR    SC3  374  -0.563   3.919   3.703  0.4191  0.3085  0.2988
    2ASN     BB  375  -0.240   4.186   3.215 -0.2499 -0.1766  0.1877
    2ASN    SC1  376  -0.315   4.330   3.454  0.0681  0.1718 -0.2606
    3TYR     BB  377  -0.047   4.331   2.997  0.0025  0.3635  0.0612
    3TYR    SC1  378   0.212   4.259   2.875  0.0391  0.2206  0.1466
    3TYR    SC2  379   0.393   4.320   2.685 -0.2887  0.1782 -0.1946
    3TYR    SC3  380   0.359   4.063   2.762  0.0081  0.2205  0.1061
    1TYR     BB  381   1.148   2.371   4.304 -0.3276 -0.3593 -0.0546
    1TYR    SC1  382   1.042   2.236   4.046  0.1339 -0.2467 -0.0426
    1TYR    SC2  383   0.824   2.160   3.908  0.0153 -0.2700  0.1539
    1TYR    SC3  384   1.015   1.979   3.968  0.1049 -0.2432 -0.0441
    2ASN     BB  385   1.402   2.195   4.446 -0.1714 -0.0743 -0.0630
    2ASN    SC1  386   1.662   2.305   4.494 -0.2415  0.1412 -0.0408
    3TYR     BB  387   1.273   1.900   4.489 -0.0766  0.1174 -0.0903
    3TYR    SC1  388   0.994   1.896   4.409 -0.0609  0.1539 -0.1391
    3TYR    SC2  389   0.765   2.011   4.325 -0.1859 -0.2293 -0.3567
    3TYR    SC3  390   0.761   1.834   4.528 -0.0288 -0.0176 -0.1617
    1TYR     BB  391   7.067   5.386   5.034  0.0030  0.0564  0.1860
    1TYR    SC1  392   6.911   5.627   4.875 -0.2889 -0.0130  0.1889
    1TYR    SC2  393   6.843   5.888   4.865 -0.0027  0.0573 -0.0641
    1TYR    SC3  394   6.939   5.765   4.645  0.1304 -0.1875  0.1257
    2ASN     BB  395   6.833   5.076   4.895 -0.0734  0.5050 -0.2064
    2ASN    SC1  396   6.850   5.140   4.624 -0.0134 -0.2523  0.1006
    3TYR     BB  397   6.543   4.886   4.949  0.0693 -0.0616 -0.2098
    3TYR    SC1  398   6.666   4.703   5.153 -0.1833  0.1317  0.2490
    3TYR    SC2  399   6.785   4.472   5.228  0.0987  0.1811 -0.0212
    3TYR    SC3  400   6.704   4.649   5.415  0.0392 -0.0540  0.1830
    1TYR     BB  401   5.417   3.996   3.298  0.0519 -0.1675 -0.0788
    1TYR    SC1  402   5.293   4.157   3.084  0.0413  0.1091 -0.1620
    1TYR    SC2  403   5.208   4.219   2.836 -0.5379  0.1251  0.0220
    1TYR    SC3  404   5.178   4.396   3.037 -0.0816  0.1095  0.1149
    2ASN     BB  405   5.626   3.839   3.552  0.1100  0.1101 -0.0428
    2ASN    SC1  406   5.939   3.951   3.559  0.0792  0.0077 -0.1096
    3TYR     BB  407   5.540   3.666   3.734 -0.2213  0.1439  0.0622
    3TYR    SC1  408   5.534   3.390   3.770  0.0543  0.2365 -0.4181
    3TYR    SC2  409   5.399   3.160   3.800 -0.1051  0.3876  0.2415
    3TYR    SC3  410   5.644   3.159   3.687 -0.0486 -0.1199  0.3381
    1TYR     BB  411   1.358   2.881   4.533 -0.0456  0.2878  0.1459
    1TYR    SC1  412   1.373   2.655   4.722 -0.1983 -0.1655  0.0757
    1TYR    SC2  413   1.251   2.496   4.904  0.1161 -0.2465  0.2269
    1TYR    SC3  414   1.519   2.518   4.904  0.1102 -0.0953 -0.1112
    2ASN     BB  415   1.518   3.197   4.621  0.3284  0.0288  0.0818
    2ASN    SC1  416   1.586   3.363   4.909 -0.0570  0.0444 -0.1995
    3TYR     BB  417   1.727   3.396   4.443 -0.1625 -0.0426 -0.1145
    3TYR    SC1  418   1.706   3.735   4.486  0.2059  0.2526  0.0150
    3TYR    SC2  419   1.728   4.005   4.490  0.0391  0.2690 -0.0657
    3TYR    SC3  420   1.485   3.889   4.514  0.1297  0.1192  0.1632
    1TYR     BB  421   2.299   4.402   4.001  0.1757  0.0582 -0.4181
    1TYR    SC1  422   2.376   4.304   3.721  0.2122 -0.1203  0.3424
    1TYR    SC2  423   2.488   4.086   3.607  0.2148 -0.1239  0.3517
    1TYR    SC3  424   2.435   4.306   3.458  0.1118 -0.1701  0.3188
    2ASN     BB  425   2.545   4.432   4.147 -0.2064  0.2099  0.3720
    2ASN    SC1  426   2.505   4.560   4.423  0.0251 -0.0177  0.0929
    3TYR     BB  427   2.778   4.323   4.040 -0.2245 -0.0680 -0.0122
    3TYR    SC1  428   2.757   4.016   3.953 -0.2758 -0.0702  0.0454
    3TYR    SC2  429   2.706   3.787   3.818 -0.1044  0.0098 -0.1633
    3TYR    SC3  430   2.954   3.838   3.911 -0.1498  0.0952 -0.0856
    1TYR     BB  431   3.885   3.790   3.597  0.0607 -0.1224  0.0595
    1TYR    SC1  432   3.882   3.844   3.903 -0.2226  0.0623  0.0215
    1TYR    SC2  433   3.861   3.717   4.140  0.0098 -0.1330 -0.0578
    1TYR    SC3  434   3.890   3.985   4.133  0.2376 -0.1479  0.1486
    2ASN     BB  435   3.957   3.466   3.658  0.1508  0.3157 -0.3820
    2ASN    SC1  436   4.191   3.390   3.526  0.1438 -0.1169 -0.1439
    3TYR     BB  437   3.768   3.328   3.871 -0.0452 -0.2270  0.0257
    3TYR    SC1  438   3.823   3.296   4.151 -0.3690 -0.3247 -0.1587
    3TYR    SC2  439   3.753   3.316   4.411 -0.1063  0.0407 -0.1043
    3TYR    SC3  440   3.904   3.108   4.327  0.1243  0.1133  0.1182
    1TYR     BB  441   0.122   3.342   3.271  0.0236  0.1950 -0.2855
    1TYR    SC1  442  -0.221   3.411   3.246 -0.4336  0.0260 -0.0813
    1TYR    SC2  443  -0.487   3.435   3.284 -0.4206  0.4542 -0.1945
    1TYR    SC3  444  -0.384   3.456   3.034 -0.2757  0.3242 -0.1467
    2ASN     BB  445   0.194   3.634   3.061 -0.0542 -0.0295 -0.2793
    2ASN    SC1  446   0.219   3.566   2.763  0.1101  0.3595  0.2221
    3TYR     BB  447   0.154   3.869   3.189  0.2208  0.0065  0.4222
    3TYR    SC1  448  -0.031   3.827   3.442 -0.4252  0.1230 -0.0677
    3TYR    SC2  449  -0.178   3.657   3.593 -0.3382  0.1098  0.0033
    3TYR    SC3  450  -0.073   3.880   3.703 -0.2771  0.1021 -0.0386
    1TYR     BB  451   4.422   4.839   3.902  0.0931 -0.0294  0.0661
    1TYR    SC1  452   4.250   5.035   4.031  0.0958  0.0487  0.1500
    1TYR    SC2  453   4.189   5.262   4.164  0.3043  0.1050  0.1526
    1TYR    SC3  454   4.166   5.023   4.288  0.1583  0.1291  0.1745
    2ASN     BB  455   4.734   4.797   3.993 -0.0099  0.0352 -0.0038
    2ASN    SC1  456   4.913   5.041   3.899  0.0055  0.0564 -0.0639
    3TYR     BB  457   4.833   4.553   3.973  0.0678  0.4748  0.1194
    3TYR    SC1  458   4.983   4.516   3.705  0.0009  0.2801 -0.0313
    3TYR    SC2  459   5.143   4.497   3.489  0.0576  0.0382  0.0281
    3TYR    SC3  460   4.984   4.712   3.520  0.0270  0.0644 -0.2681
    1TYR     BB  461   3.824   4.207   2.866  0.0516  0.3322 -0.3348
    1TYR    SC1  462   4.034   4.396   2.943  0.2546 -0.1596  0.5054
    1TYR    SC2  463   4.214   4.544   2.806 -0.0396 -0.0097  0.2661
    1TYR    SC3  464   4.217   4.545   3.076  0.0516  0.3312  0.2709
    2ASN     BB  465   3.584   4.342   2.669 -0.0269 -0.0818  0.1390
    2ASN    SC1  466   3.355   4.105   2.598  0.2247 -0.1729  0.1554
    3TYR     BB  467   3.443   4.634   2.698 -0.1686  0.1912  0.2491
    3TYR    SC1  468   3.666   4.914   2.689 -0.3590  0.2285  0.0789
    3TYR    SC2  469   3.921   4.998   2.713 -0.2606  0.0159 -0.1575
    3TYR    SC3  470   3.738   5.157   2.594 -0.1955  0.0930 -0.1566
    1TYR     BB  471   2.326   4.851   3.098 -0.2248 -0.0199  0.0748
    1TYR    SC1  472   2.235   4.681   3.317  0.0401  0.0071  0.1338
    1TYR    SC2  473   2.205   4.683   3.586 -0.1761 -0.3464  0.1212
    1TYR    SC3  474   2.012   4.577   3.430 -0.0094 -0.2347 -0.1714
    2ASN     BB  475   2.220   4.966   2.827  0.1253  0.2785  0.0121
    2ASN    SC1  476   2.330   4.775   2.609  0.1574  0.2414  0.0560
    3TYR     BB  477   2.068   5.225   2.779 -0.3838  0.1724  0.3522
    3TYR    SC1  478   1.765   5.224   2.710  0.1869 -0.4917 -0.0530
    3TYR    SC2  479   1.566   5.066   2.621  0.2190 -0.5013 -0.1078
    3TYR    SC3  480   1.546   5.182   2.864 -0.0455 -0.1662 -0.2786
    1TYR     BB  481   7.063   4.510   4.119  0.3178  0.4110  0.1155
    1TYR    SC1  482   7.278   4.508   4.321 -0.1110  0.1307  0.0478
    1TYR    SC2  483   7.357   4.344   4.519 -0.0225  0.0990 -0.0126
    1TYR    SC3  484   7.438   4.601   4.517 -0.2894  0.1902  0.1677
    2ASN     BB  485   7.114   4.710   3.894  0.0387  0.0868  0.1533
    2ASN    SC1  486   7.445   4.820   3.926  0.0675 -0.0457  0.2790
    3TYR     BB  487   6.966   4.807   3.663 -0.3350 -0.1195 -0.0474
    3TYR    SC1  488   6.857   5.086   3.648  0.0802 -0.0432  0.0952
    3TYR    SC2  489   6.756   5.275   3.484 -0.0430 -0.1784  0.0113
    3TYR    SC3  490   6.692   5.277   3.746 -0.0149 -0.0845  0.0182
    1TYR     BB  491   5.652   3.882   2.841 -0.0044 -0.0892 -0.1490
    1TYR    SC1  492   5.360   3.772   2.847 -0.0087 -0.0281 -0.0619
    1TYR    SC2  493   5.095   3.784   2.896 -0.0110  0.1835 -0.1119
    1TYR    SC3  494   5.228   3.552   2.931 -0.1832  0.0990  0.0061
    2ASN     BB  495   5.758   3.658   3.149  0.1053  0.1205  0.0988
    2ASN    SC1  496   6.070   3.760   3.101  0.2199  0.2555  0.0665
    3TYR     BB  497   5.544   3.460   3.279  0.1894  0.0097  0.3477
    3TYR    SC1  498   5.455   3.164   3.268 -0.2864  0.1754  0.1254
    3TYR    SC2  499   5.403   2.922   3.378  0.0706  0.0497  0.0319
    3TYR    SC3  500   5.277   2.997   3.151  0.0353 -0.0945  0.0028
    1TYR     BB  501   3.074   2.786   4.028 -0.1379  0.1694 -0.4128
    1TYR    SC1  502   3.130   2.741   3.728  0.0179  0.0418 -0.1284
    1TYR    SC2  503   3.068   2.780   3.468 -0.0173 -0.1296 -0.1469
    1TYR    SC3  504   3.262   2.604   3.536  0.2217  0.1537 -0.0721
    2ASN     BB  505   3.064   2.426   4.167  0.0417 -0.0816 -0.1015
    2ASN    SC1  506   3.266   2.274   3.998 -0.1062  0.0101 -0.1533
    3TYR     BB  507   2.979   2.277   4.449 -0.3956  0.0364  0.1112
    3TYR    SC1  508   2.973   1.981   4.395 -0.2679  0.1869  0.1372
    3TYR    SC2  509   3.065   1.727   4.395 -0.2046  0.2096  0.1695
    3TYR    SC3  510   2.909   1.814   4.192 -0.2655  0.1313  0.1821
    1TYR     BB  511   1.961   3.979   3.156  0.3241 -0.0985  0.1553
    1TYR    SC1  512   1.980   4.078   3.424 -0.2615 -0.4959  0.2072
    1TYR    SC2  513   1.859   4.166   3.650 -0.1243  0.0869  0.0716
    1TYR    SC3  514   2.027   3.955   3.661 -0.3400 -0.0774  0.4528
    2ASN     BB  515   1.788   3.630   3.119  0.3210 -0.1058  0.0348
    2ASN    SC1  516   1.970   3.447   2.909 -0.1290  0.0837 -0.0320
    3TYR     BB  517   1.485   3.577   3.031 -0.0255  0.0592 -0.1239
    3TYR    SC1  518   1.260   3.405   3.138  0.0284 -0.0948  0.2882
    3TYR    SC2  519   1.046   3.403   3.303 -0.1642  0.1730  0.0552
    3TYR    SC3  520   1.132   3.173   3.191 -0.2871  0.0514  0.2058
    1TYR     BB  521   6.065   4.001   4.447  0.0481  0.0589  0.0580
    1TYR    SC1  522   5.818   4.036   4.609 -0.0293 -0.3013  0.1703
    1TYR    SC2  523   5.550   4.015   4.636 -0.0529  0.2435  0.5674
    1TYR    SC3  524   5.712   3.937   4.837  0.0850  0.0710  0.3950
    2ASN     BB  525   6.320   3.925   4.695  0.0052  0.1434 -0.0202
    2ASN    SC1  526   6.174   3.853   4.935 -0.2716  0.3185  0.0654
    3TYR     BB  527   6.537   3.963   4.610  0.0754  0.0179  0.1174
    3TYR    SC1  528   6.532   4.223   4.415  0.1471  0.0753  0.0876
    3TYR    SC2  529   6.432   4.465   4.481  0.0742 -0.0049  0.2802
    3TYR    SC3  530   6.601   4.442   4.272 -0.1556  0.1634  0.0680
    1TYR     BB  531   1.407   2.838   4.000  0.1522  0.0973 -0.1495
    1TYR    SC1  532   1.191   2.696   3.876 -0.2781 -0.0727  0.0195
    1TYR    SC2  533   1.164   2.475   3.723 -0.0718 -0.1793  0.1337
    1TYR    SC3  534   0.952   2.636   3.763 -0.1424 -0.1742 -0.2229
    2ASN     BB  535   1.312   3.189   4.118  0.0196 -0.0573  0.2928
    2ASN    SC1  536   1.008   3.186   4.119  0.0663 -0.2302  0.2112
    3TYR     BB  537   1.543   3.321   4.033  0.3600 -0.1330 -0.0341
    3TYR    SC1  538   1.780   3.129   3.972 -0.1567  0.1099 -0.0709
    3TYR    SC2  539   1.983   2.953   3.954 -0.0238  0.2235  0.2297
    3TYR    SC3  540   1.786   2.951   3.769 -0.0993 -0.3245  0.2941
    1TYR     BB  541   2.914   4.859   2.619 -0.1091 -0.3469 -0.0239
    1TYR    SC1  542   2.836   5.158   2.629  0.0022  0.0792  0.3595
    1TYR    SC2  543   2.880   5.422   2.661  0.0809  0.1857 -0.3982
    1TYR    SC3  544   2.628   5.324   2.675  0.0903  0.1974  0.3336
    2ASN     BB  545   2.784   4.579   2.793 -0.1529 -0.1000  0.0613
    2ASN    SC1  546   2.990   4.367   2.695  0.1859 -0.0858 -0.0235
    3TYR     BB  547   2.735   4.537   3.084  0.1432 -0.1379 -0.1304
    3TYR    SC1  548   2.747   4.683   3.388 -0.2888 -0.1740  0.0900
    3TYR    SC2  549   2.774   4.893   3.555 -0.3131 -0.1316  0.0406
    3TYR    SC3  550   2.751   4.644   3.655  0.1191 -0.1589  0.0947
    1TYR     BB  551   1.907   3.428   3.624  0.1790  0.0256 -0.4195
    1TYR    SC1  552   2.136   3.559   3.490 -0.0703  0.0167 -0.0601
    1TYR    SC2  553   2.255   3.546   3.248 -0.2482 -0.1760 -0.1409
    1TYR    SC3  554   2.329   3.738   3.424  0.1397 -0.2551 -0.2071
    2ASN     BB  555   1.649   3.643   3.699  0.3346  0.2891 -0.0026
    2ASN    SC1  556   1.701   3.784   3.968 -0.1619  0.0295  0.0350
    3TYR     BB  557   1.504   3.853   3.478  0.0816  0.0464 -0.0485
    3TYR    SC1  558   1.374   4.034   3.685 -0.1163 -0.0017 -0.0419
    3TYR    SC2  559   1.242   4.093   3.912  0.1131  0.0470  0.0840
    3TYR    SC3  560   1.367   4.289   3.774 -0.2202  0.0610 -0.2214
    1TYR     BB  561   5.839   2.278   3.593  0.2451 -0.1695  0.1705
    1TYR    SC1  562   5.984   2.087   3.770  0.1210  0.2814  0.0071
    1TYR    SC2  563   6.022   2.126   4.034 -0.0713  0.0582  0.0728
    1TYR    SC3  564   5.977   1.877   3.941  0.1189  0.1178 -0.1896
    2ASN     BB  565   5.725   2.524   3.808 -0.3632  0.3035 -0.3761
    2ASN    SC1  566   5.763   2.520   4.128 -0.0621  0.0605 -0.1713
    3TYR     BB  567   5.415   2.683   3.830 -0.0571 -0.2508 -0.2036
    3TYR    SC1  568   5.384   2.802   4.105 -0.3031 -0.1074 -0.0059
    3TYR    SC2  569   5.348   2.943   4.331 -0.2507  0.1785 -0.1690
    3TYR    SC3  570   5.260   2.687   4.316 -0.0068  0.0550  0.2669
    1TYR     BB  571   5.520   3.718   4.226  0.0047 -0.0948 -0.0409
    1TYR    SC1  572   5.271   3.625   4.135 -0.1103 -0.0802  0.1103
    1TYR    SC2  573   5.205   3.362   4.147 -0.5132  0.0089  0.0441
    1TYR    SC3  574   5.126   3.512   3.936  0.1567  0.0808 -0.1866
    2ASN     BB  575   5.636   3.563   4.481 -0.0407  0.1436  0.0651
    2ASN    SC1  576   5.362   3.441   4.642 -0.3328  0.3381 -0.1658
    3TYR     BB  577   5.886   3.460   4.580 -0.2833 -0.2812 -0.1417
    3TYR    SC1  578   5.872   3.347   4.827 -0.1253 -0.2774 -0.0312
    3TYR    SC2  579   5.972   3.282   5.070 -0.0416 -0.0169  0.0080
    3TYR    SC3  580   5.733   3.408   5.051 -0.0238  0.0103 -0.0407
    1TYR     BB  581   5.943   2.898   4.542  0.0117  0.1522  0.4520
    1TYR    SC1  582   5.819   3.085   4.313 -0.3161  0.0676  0.2711
    1TYR    SC2  583   5.633   3.198   4.154 -0.0552 -0.0273 -0.1210
    1TYR    SC3  584   5.809   3.023   4.051  0.1004 -0.1285  0.2928
    2ASN     BB  585   6.205   3.002   4.651  0.1236  0.0753  0.0118
    2ASN    SC1  586   6.427   2.736   4.629  0.0570  0.3860  0.0300
    3TYR     BB  587   6.342   3.235   4.624 -0.0732  0.0708 -0.0885
    3TYR    SC1  588   6.411   3.371   4.856 -0.0866  0.4092 -0.2689
    3TYR    SC2  589   6.576   3.562   4.953  0.2314 -0.1062  0.2896
    3TYR    SC3  590   6.399   3.442   5.117 -0.2402 -0.0429 -0.1425
    1TYR     BB  591   0.622   3.649   4.588  0.1271  0.1825  0.0917
    1TYR    SC1  592   0.703   3.512   4.845  0.0867 -0.1968 -0.1898
    1TYR    SC2  593   0.577   3.572   5.076 -0.0369 -0.1175 -0.2761
    1TYR    SC3  594   0.729   3.350   5.059  0.0596 -0.0682 -0.0877
    2ASN     BB  595   0.599   3.457   4.331 -0.0511  0.1557 -0.2281
    2ASN    SC1  596   0.640   3.558   4.052 -0.1420 -0.0154  0.0024
    3TYR     BB  597   0.554   3.116   4.277  0.0514  0.2841  0.1845
    3TYR    SC1  598   0.366   2.863   4.368  0.2938 -0.1332  0.0072
    3TYR    SC2  599   0.339   2.615   4.471 -0.0982 -0.0530  0.1192
    3TYR    SC3  600   0.159   2.706   4.291  0.2061  0.0509 -0.1426
    1TYR     BB  601   5.850   5.444   3.975  0.0689 -0.0147 -0.1755
    1TYR    SC1  602   5.940   5.461   3.730 -0.1383 -0.0298  0.3839
    1TYR    SC2  603   6.041   5.612   3.530 -0.1053  0.0744  0.4783
    1TYR    SC3  604   6.131   5.360   3.569 -0.2166  0.0001  0.2708
    2ASN     BB  605   5.649   5.666   4.117  0.1198 -0.3339  0.0350
    2ASN    SC1  606   5.820   5.965   3.968 -0.0171  0.0293 -0.0574
    3TYR     BB  607   5.528   5.748   4.324  0.1489  0.3556  0.0099
    3TYR    SC1  608   5.331   5.569   4.444  0.2841 -0.0548 -0.0654
    3TYR    SC2  609   5.169   5.494   4.645  0.2510  0.1635 -0.0080
    3TYR    SC3  610   5.083   5.478   4.390  0.3112 -0.1616 -0.0134
    1TYR     BB  611   2.819   3.094   3.102 -0.1442 -0.1454 -0.0760
    1TYR    SC1  612   2.650   3.328   3.035 -0.0879  0.3976  0.2802
    1TYR    SC2  613   2.635   3.574   2.923 -0.0100  0.1935 -0.2122
    1TYR    SC3  614   2.456   3.383   2.856  0.1883 -0.0112 -0.1763
    2ASN     BB  615   2.790   2.767   3.030  0.0987  0.0385 -0.3529
    2ASN    SC1  616   2.867   2.624   2.758  0.1726  0.2475 -0.0356
    3TYR     BB  617   2.631   2.586   3.186  0.0467  0.0322  0.1589
    3TYR    SC1  618   2.768   2.431   3.393 -0.0173  0.0250  0.0594
    3TYR    SC2  619   2.865   2.183   3.348 -0.4894 -0.1729  0.0561
    3TYR    SC3  620   2.928   2.314   3.577  0.0150 -0.1521 -0.0784
    1TYR     BB  621   6.918   3.544   2.112  0.0030  0.1501  0.2630
    1TYR    SC1  622   6.898   3.502   2.430  0.0716 -0.0590 -0.0068
    1TYR    SC2  623   6.986   3.355   2.638  0.0568  0.1825  0.1757
    1TYR    SC3  624   6.725   3.422   2.621 -0.0052 -0.0907 -0.0879
    2ASN     BB  625   6.814   3.333   1.962  0.1159 -0.0018  0.0556
    2ASN    SC1  626   6.911   3.416   1.582  0.1561  0.4006  0.0463
    3TYR     BB  627   6.745   3.033   1.904  0.0635 -0.3591  0.2348
    3TYR    SC1  628   6.452   2.982   2.043  0.1919  0.2782  0.0234
    3TYR    SC2  629   6.345   2.840   2.246  0.2993 -0.0682 -0.1514
    3TYR    SC3  630   6.185   2.944   2.055  0.2294 -0.0666 -0.0925
    1TYR     BB  631   3.202   4.133   4.191  0.0990  0.1324  0.0592
    1TYR    SC1  632   3.463   4.214   4.033 -0.1433  0.3685  0.1236
    1TYR    SC2  633   3.611   4.256   3.811 -0.3409  0.2873 -0.0268
    1TYR    SC3  634   3.629   4.427   4.019  0.2417  0.0842  0.1155
    2ASN     BB  635   3.232   3.927   4.413 -0.0835  0.0596 -0.0453
    2ASN    SC1  636   3.451   3.690   4.347  0.3840 -0.5402  0.1352
    3TYR     BB  637   3.098   4.053   4.751  0.0509  0.0506 -0.2801
    3TYR    SC1  638   3.135   4.322   4.655  0.4309  0.1315  0.0484
    3TYR    SC2  639   3.129   4.592   4.663 -0.1144  0.1299  0.2375
    3TYR    SC3  640   2.981   4.459   4.482  0.1812 -0.0523  0.1188
    1TYR     BB  641   3.652   4.683   4.733 -0.3604  0.2234 -0.2650
    1TYR    SC1  642   3.682   4.981   4.614  0.0726 -0.0934  0.0806
    1TYR    SC2  643   3.594   5.225   4.686 -0.3257 -0.1997 -0.0153
    1TYR    SC3  644   3.796   5.201   4.508 -0.0336  0.0542  0.2652
    2ASN     BB  645   3.769   4.438   4.512  0.1129  0.2009 -0.1032
    2ASN    SC1  646   3.583   4.237   4.524 -0.0245 -0.0962 -0.3471
    3TYR     BB  647   4.018   4.531   4.318  0.1250 -0.1409 -0.0219
    3TYR    SC1  648   4.141   4.433   4.063 -0.5280 -0.2393  0.2034
    3TYR    SC2  649   4.123   4.286   3.838 -0.2697  0.0075  0.0119
    3TYR    SC3  650   4.364   4.340   3.944 -0.3682  0.1765  0.1567
    1TYR     BB  651   7.215   3.337   3.420  0.0537  0.1380 -0.4117
    1TYR    SC1  652   7.498   3.379   3.488 -0.3236  0.1890  0.0178
    1TYR    SC2  653   7.736   3.446   3.596 -0.1280 -0.1492 -0.1797
    1TYR    SC3  654   7.721   3.378   3.335 -0.4249 -0.2328 -0.1458
    2ASN     BB  655   7.011   3.105   3.612 -0.1572 -0.1821 -0.1096
    2ASN    SC1  656   6.722   3.275   3.602 -0.2184  0.1408  0.3249
    3TYR     BB  657   6.998   2.812   3.435 -0.0807 -0.0742 -0.0461
    3TYR    SC1  658   6.936   2.501   3.462 -0.0084 -0.2213  0.2008
    3TYR    SC2  659   6.811   2.279   3.375  0.0627 -0.2802  0.2463
    3TYR    SC3  660   6.830   2.328   3.640  0.3443 -0.3988  0.2522
    1TYR     BB  661   0.658   2.789   4.835 -0.1834  0.1017 -0.1469
    1TYR    SC1  662   0.447   3.021   4.831  0.3198  0.2846 -0.1378
    1TYR    SC2  663   0.356   3.250   4.720  0.0342  0.1380 -0.2188
    1TYR    SC3  664   0.275   3.178   4.968 -0.1754 -0.0519 -0.3379
    2ASN     BB  665   0.844   2.656   4.643 -0.0981  0.2487 -0.0777
    2ASN    SC1  666   0.797   2.363   4.667 -0.3243  0.2772  0.1617
    3TYR     BB  667   0.912   2.799   4.337 -0.1532  0.1588 -0.3695
    3TYR    SC1  668   0.716   2.666   4.131 -0.1402  0.2682 -0.3300
    3TYR    SC2  669   0.485   2.642   3.992 -0.1503  0.0742 -0.2822
    3TYR    SC3  670   0.570   2.440   4.150 -0.0400  0.2164 -0.1557
    1TYR     BB  671   4.995   2.726   3.636  0.1637 -0.2869  0.1626
    1TYR    SC1  672   4.935   2.774   3.348 -0.1971  0.1319  0.2756
    1TYR    SC2  673   4.894   2.763   3.082  0.1104 -0.1682  0.2320
    1TYR    SC3  674   4.707   2.668   3.251 -0.2547  0.3573  0.1550
    2ASN     BB  675   4.784   2.878   3.811  0.2358 -0.1186 -0.0080
    2ASN    SC1  676   4.531   2.694   3.828  0.0343 -0.2750 -0.1796
    3TYR     BB  677   4.897   3.000   4.069  0.0746 -0.2181  0.0051
    3TYR    SC1  678   4.738   3.251   4.157 -0.2259  0.0553 -0.0201
    3TYR    SC2  679   4.681   3.512   4.117  0.1157  0.1516  0.0835
    3TYR    SC3  680   4.776   3.431   4.356  0.2201 -0.0282 -0.0164
    1TYR     BB  681   6.424   2.933   2.874 -0.1274  0.3355  0.0367
    1TYR    SC1  682   6.649   2.905   2.656 -0.1571 -0.3859  0.1216
    1TYR    SC2  683   6.781   2.739   2.490  0.1557 -0.0418  0.0115
    1TYR    SC3  684   6.749   2.999   2.423 -0.0280  0.0238  0.3300
    2ASN     BB  685   6.538   3.002   3.133  0.1365 -0.0334 -0.0550
    2ASN    SC1  686   6.816   3.124   3.129 -0.1079 -0.2736 -0.2411
    3TYR     BB  687   6.496   2.817   3.382  0.1295 -0.3754 -0.1725
    3TYR    SC1  688   6.245   2.886   3.493 -0.0120  0.2676  0.0061
    3TYR    SC2  689   6.028   2.726   3.485  0.1948 -0.0161 -0.2676
    3TYR    SC3  690   6.049   2.918   3.674 -0.3090  0.0503 -0.2641
    1TYR     BB  691   2.845   5.386   3.494 -0.1103  0.2436  0.0732
    1TYR    SC1  692   2.566   5.370   3.642  0.1590 -0.0308  0.2688
    1TYR    SC2  693   2.385   5.317   3.834  0.1052 -0.0229  0.2209
    1TYR    SC3  694   2.441   5.132   3.646  0.0310  0.0318  0.1443
    2ASN     BB  695   2.798   5.404   3.131 -0.2790 -0.1982 -0.0714
    2ASN    SC1  696   3.057   5.558   3.102 -0.4733  0.0674 -0.2184
    3TYR     BB  697   2.699   5.108   3.115  0.2704  0.0796 -0.0274
    3TYR    SC1  698   2.970   4.981   3.149  0.1443 -0.0275 -0.2372
    3TYR    SC2  699   3.174   4.952   3.325 -0.1035 -0.1522  0.0419
    3TYR    SC3  700   3.172   4.810   3.095  0.1683 -0.0739 -0.0136
    1TYR     BB  701   0.962   4.656   3.228  0.1731  0.1852  0.0260
    1TYR    SC1  702   1.190   4.592   3.047  0.4575  0.1843  0.3199
    1TYR    SC2  703   1.386   4.505   2.882  0.1245  0.0752 -0.0357
    1TYR    SC3  704   1.312   4.765   2.879  0.1103  0.0709 -0.0682
    2ASN     BB  705   0.754   4.777   3.042  0.1775  0.3137  0.2932
    2ASN    SC1  706   0.836   4.936   2.828 -0.0342  0.2590 -0.2737
    3TYR     BB  707   0.469   4.634   3.020  0.0223 -0.0084 -0.2485
    3TYR    SC1  708   0.203   4.718   3.187 -0.4028 -0.1006 -0.2333
    3TYR    SC2  709   0.070   4.947   3.240 -0.0814  0.0365  0.0253
    3TYR    SC3  710  -0.012   4.714   3.351 -0.0143  0.1481  0.3193
    1TYR     BB  711  -0.258   3.006   4.154 -0.1654 -0.1378 -0.0297
    1TYR    SC1  712  -0.279   3.145   3.892 -0.1636 -0.1929 -0.1895
    1TYR    SC2  713  -0.460   3.224   3.707 -0.1922  0.0752 -0.0540
    1TYR    SC3  714  -0.196   3.237   3.652 -0.1969  0.2549 -0.0431
    2ASN     BB  715  -0.096   3.155   4.382 -0.0322  0.1790 -0.0965
    2ASN    SC1  716  -0.110   2.978   4.616 -0.2537 -0.1742 -0.1294
    3TYR     BB  717   0.121   3.364   4.277 -0.2711 -0.1473 -0.1678
    3TYR    SC1  718  -0.115   3.568   4.151  0.0359 -0.1161  0.1699
    3TYR    SC2  719  -0.348   3.590   4.018  0.2454  0.2256 -0.1670
    3TYR    SC3  720  -0.226   3.811   4.112  0.3023  0.0259  0.2587
    1TYR     BB  721   2.271   4.866   4.036 -0.0695  0.1107 -0.0602
    1TYR    SC1  722   2.550   4.989   4.135  0.0230 -0.1842  0.0650
    1TYR    SC2  723   2.760   4.835   4.062  0.1858 -0.0044  0.1395
    1TYR    SC3  724   2.764   4.965   4.299  0.0073  0.0360  0.1228
    2ASN     BB  725   2.102   4.790   4.258 -0.3005  0.1595 -0.0836
    2ASN    SC1  726   1.933   5.081   4.266 -0.3165 -0.3770  0.1218
    3TYR     BB  727   2.006   4.574   4.435  0.0610 -0.0167 -0.1652
    3TYR    SC1  728   1.800   4.398   4.276 -0.0700 -0.2441  0.4648
    3TYR    SC2  729   1.817   4.191   4.104  0.1365  0.0097  0.1669
    3TYR    SC3  730   1.576   4.290   4.172  0.0525  0.0868 -0.2126
    1TYR     BB  731   7.210   4.373   5.029  0.0433 -0.2430  0.2286
    1TYR    SC1  732   7.018   4.534   4.857  0.2096 -0.2670 -0.2450
    1TYR    SC2  733   6.778   4.517   4.733  0.0815 -0.1632 -0.0177
    1TYR    SC3  734   6.976   4.666   4.624  0.0406 -0.2393 -0.2004
    2ASN     BB  735   7.150   4.130   5.091 -0.0134  0.1602 -0.0095
    2ASN    SC1  736   7.283   3.949   5.320 -0.1142  0.0252 -0.0968
    3TYR     BB  737   6.884   4.006   4.931 -0.0986  0.0239 -0.1846
    3TYR    SC1  738   6.655   4.030   5.098  0.1883 -0.3205 -0.0519
    3TYR    SC2  739   6.545   3.844   5.259  0.2392 -0.1130  0.2348
    3TYR    SC3  740   6.480   4.105   5.290 -0.2049 -0.1065 -0.4729
    1TYR     BB  741   0.561   4.526   4.054  0.3104 -0.0330 -0.1592
    1TYR    SC1  742   0.509   4.542   3.790 -0.0576  0.0773  0.0884
    1TYR    SC2  743   0.335   4.682   3.638 -0.1775 -0.4098 -0.2595
    1TYR    SC3  744   0.537   4.547   3.522 -0.0413 -0.4962  0.0625
    2ASN     BB  745   0.896   4.359   4.138  0.0639 -0.1754 -0.1177
    2ASN    SC1  746   0.762   4.053   4.102  0.0784  0.0407 -0.4066
    3TYR     BB  747   1.116   4.543   4.154 -0.2073 -0.0439  0.3639
    3TYR    SC1  748   1.279   4.690   4.403  0.0786 -0.3089 -0.0054
    3TYR    SC2  749   1.351   4.881   4.579  0.0684 -0.3124  0.0028
    3TYR    SC3  750   1.506   4.829   4.364 -0.0985 -0.0583 -0.1880
    1TYR     BB  751   2.374   6.194   3.655 -0.0018 -0.2258 -0.2961
    1TYR    SC1  752   2.080   6.252   3.695  0.0413  0.1232 -0.3887
    1TYR    SC2  753   1.835   6.362   3.665 -0.0360  0.0697 -0.0069
    1TYR    SC3  754   1.865   6.135   3.808  0.1570 -0.2822 -0.5675
    2ASN     BB  755   2.327   6.345   3.287 -0.1709  0.2349  0.1270
    2ASN    SC1  756   2.232   6.638   3.358  0.1674 -0.1537  0.2316
    3TYR     BB  757   2.143   6.079   3.165 -0.2241 -0.1663 -0.3821
    3TYR    SC1  758   2.098   5.871   3.404  0.4764 -0.0998 -0.0171
    3TYR    SC2  759   2.179   5.699   3.596 -0.0514 -0.1579  0.1756
    3TYR    SC3  760   1.916   5.750   3.564  0.0544  0.1883 -0.2557
    1TYR     BB  761   2.700   4.033   4.449  0.3227  0.1988 -0.1065
    1TYR    SC1  762   2.801   3.763   4.303  0.0701 -0.1480 -0.3504
    1TYR    SC2  763   2.644   3.561   4.214 -0.1582 -0.2858  0.2955
    1TYR    SC3  764   2.902   3.513   4.278 -0.0277 -0.2123 -0.1342
    2ASN     BB  765   2.358   4.080   4.390  0.1209  0.2335 -0.0335
    2ASN    SC1  766   2.195   4.156   4.686 -0.0849 -0.1046  0.2860
    3TYR     BB  767   2.219   3.933   4.157  0.0340 -0.1829  0.0051
    3TYR    SC1  768   2.262   3.678   4.044  0.3588 -0.0007 -0.1478
    3TYR    SC2  769   2.309   3.475   3.871  0.0043 -0.0839 -0.1555
    3TYR    SC3  770   2.107   3.457   4.049  0.1868  0.1211  0.0825
    1TYR     BB  771   2.255   1.904   4.938 -0.1249 -0.2210  0.0336
    1TYR    SC1  772   2.257   1.590   4.740 -0.2763  0.0278  0.1255
    1TYR    SC2  773   2.261   1.342   4.846 -0.2032  0.0373  0.1462
    1TYR    SC3  774   2.280   1.375   4.578 -0.0299  0.0273  0.1561
    2ASN     BB  775   2.069   2.106   4.750  0.0291  0.2062 -0.0457
    2ASN    SC1  776   1.948   1.890   4.535 -0.0300 -0.4447  0.2154
    3TYR     BB  777   2.045   2.373   4.880 -0.1452 -0.1889  0.1648
    3TYR    SC1  778   1.896   2.305   5.136 -0.2064 -0.1749 -0.1915
    3TYR    SC2  779   1.840   2.181   5.369 -0.0505 -0.1388 -0.1332
    3TYR    SC3  780   1.798   2.446   5.344  0.1804 -0.0919 -0.0549
    1TYR     BB  781   7.714   3.374   4.670 -0.1683  0.0947 -0.1104
    1TYR    SC1  782   7.577   3.506   4.416  0.1634 -0.1110  0.1222
    1TYR    SC2  783   7.336   3.580   4.319  0.1238 -0.2172  0.1369
    1TYR    SC3  784   7.558   3.612   4.169  0.1024 -0.1083  0.1275
    2ASN     BB  785   7.515   3.111   4.792  0.0529 -0.0389  0.0115
    2ASN    SC1  786   7.767   2.891   4.844  0.3152  0.0948  0.0096
    3TYR     BB  787   7.279   3.048   4.952 -0.4170 -0.1280  0.1530
    3TYR    SC1  788   7.325   2.744   4.994 -0.0943 -0.1024 -0.0562
    3TYR    SC2  789   7.444   2.541   5.128 -0.0016 -0.0295 -0.0270
    3TYR    SC3  790   7.385   2.514   4.866 -0.0467 -0.1170 -0.0082
    1TYR     BB  791   6.780   4.005   4.030  0.0771 -0.0035 -0.0959
    1TYR    SC1  792   6.919   4.006   4.301 -0.2169 -0.2283 -0.0519
    1TYR    SC2  793   6.967   4.175   4.508 -0.1609 -0.3469  0.0334
    1TYR    SC3  794   7.115   3.952   4.478 -0.0726 -0.2598 -0.2183
    2ASN     BB  795   6.514   3.942   3.929  0.0669  0.0665 -0.2015
    2ASN    SC1  796   6.277   4.109   4.006 -0.0540 -0.0917  0.1741
    3TYR     BB  797   6.445   3.663   3.779 -0.3000 -0.0564 -0.0263
    3TYR    SC1  798   6.211   3.559   3.666  0.0854  0.2893 -0.0020
    3TYR    SC2  799   6.210   3.331   3.523  0.1514  0.3900 -0.1674
    3TYR    SC3  800   5.977   3.453   3.582  0.1192  0.3100 -0.1257
    1TYR     BB  801   7.687   2.733   2.623  0.0678 -0.0915  0.1571
    1TYR    SC1  802   7.736   2.664   2.937  0.5951  0.3812 -0.1411
    1TYR    SC2  803   7.804   2.439   3.069 -0.1818  0.2120  0.0389
    1TYR    SC3  804   7.924   2.673   3.130  0.1158 -0.0164  0.3851
    2ASN     BB  805   7.786   3.112   2.654 -0.3102 -0.3568  0.0881
    2ASN    SC1  806   7.840   3.119   2.949  0.0382 -0.0380 -0.2662
    3TYR     BB  807   7.696   3.293   2.396  0.1635 -0.0605  0.2623
    3TYR    SC1  808   7.520   3.510   2.342  0.2956 -0.1387 -0.4600
    3TYR    SC2  809   7.350   3.713   2.290  0.1454 -0.0901  0.1250
    3TYR    SC3  810   7.617   3.751   2.269  0.1132  0.1090  0.0502
    1TYR     BB  811   0.587   5.065   3.919  0.1438  0.0835 -0.4796
    1TYR    SC1  812   0.638   5.020   3.622  0.0404  0.0503  0.0192
    1TYR    SC2  813   0.788   5.076   3.404  0.1319 -0.1074  0.0402
    1TYR    SC3  814   0.523   5.028   3.376  0.1417 -0.1210 -0.0357
    2ASN     BB  815   0.806   4.984   4.188  0.0434  0.2199  0.0661
    2ASN    SC1  816   1.096   5.127   4.204 -0.0474 -0.1982 -0.0938
    3TYR     BB  817   0.775   4.771   4.497 -0.0333 -0.0835  0.1021
    3TYR    SC1  818   0.861   5.013   4.687 -0.2950  0.1326  0.0540
    3TYR    SC2  819   1.050   5.203   4.654 -0.1195 -0.0524 -0.0315
    3TYR    SC3  820   0.912   5.189   4.886  0.2543 -0.1583  0.1953
    1TYR     BB  821   3.553   3.713   2.802 -0.0163 -0.0109 -0.1046
    1TYR    SC1  822   3.775   3.813   2.611 -0.0538  0.3963  0.0040
    1TYR    SC2  823   3.788   3.727   2.355 -0.1416  0.0933  0.0954
    1TYR    SC3  824   3.869   3.977   2.419 -0.1526  0.1856 -0.2311
    2ASN     BB  825   3.639   3.715   3.074 -0.0835 -0.1384 -0.0219
    2ASN    SC1  826   3.485   3.794   3.295 -0.0443 -0.4958 -0.0112
    3TYR     BB  827   3.967   3.762   3.118 -0.2960 -0.0705 -0.3102
    3TYR    SC1  828   4.172   3.897   2.933 -0.1378  0.3021  0.0349
    3TYR    SC2  829   4.220   4.005   2.690  0.2943  0.0830  0.0098
    3TYR    SC3  830   4.358   4.090   2.905  0.4977 -0.2641  0.0255
    1TYR     BB  831   6.488   5.571   4.409 -0.2569 -0.2440 -0.0663
    1TYR    SC1  832   6.523   5.476   4.712 -0.1055 -0.2194  0.0848
    1TYR    SC2  833   6.372   5.289   4.833  0.0358 -0.2093  0.2828
    1TYR    SC3  834   6.498   5.477   4.981 -0.2291  0.1428  0.0797
    2ASN     BB  835   6.160   5.456   4.416 -0.0331  0.0860 -0.0050
    2ASN    SC1  836   6.063   5.800   4.401  0.0765  0.0785  0.3053
    3TYR     BB  837   5.953   5.327   4.510 -0.1590  0.1858 -0.0419
    3TYR    SC1  838   5.741   5.433   4.695  0.0665 -0.0775  0.0476
    3TYR    SC2  839   5.640   5.651   4.820  0.1046  0.0248 -0.0957
    3TYR    SC3  840   5.566   5.403   4.898 -0.2121  0.0935 -0.1559
    1TYR     BB  841   0.941   4.473   4.860  0.1402 -0.0685  0.0453
    1TYR    SC1  842   1.024   4.294   4.627 -0.1253 -0.2915 -0.1668
    1TYR    SC2  843   1.196   4.193   4.445  0.0507 -0.0666 -0.1295
    1TYR    SC3  844   1.035   4.028   4.583  0.2174 -0.2801 -0.1846
    2ASN     BB  845   1.163   4.674   4.994 -0.0372  0.2201  0.0857
    2ASN    SC1  846   0.983   4.807   5.228 -0.0140 -0.1326  0.0837
    3TYR     BB  847   1.506   4.779   5.060  0.0358 -0.0170 -0.0364
    3TYR    SC1  848   1.640   4.508   5.215  0.0241  0.0287 -0.0332
    3TYR    SC2  849   1.896   4.441   5.268  0.0474  0.0665 -0.0961
    3TYR    SC3  850   1.703   4.252   5.275  0.0467  0.0716  0.1316
    1TYR     BB  851   0.113   4.565   4.327 -0.0006 -0.1559  0.4204
    1TYR    SC1  852   0.053   4.653   4.056 -0.2033  0.1018 -0.0183
    1TYR    SC2  853   0.092   4.878   3.911  0.1978 -0.0090 -0.0960
    1TYR    SC3  854  -0.105   4.706   3.842 -0.0220  0.2443 -0.1200
    2ASN     BB  855   0.133   4.804   4.511 -0.0266 -0.0367 -0.0216
    2ASN    SC1  856  -0.019   4.774   4.758 -0.0357 -0.0565 -0.1482
    3TYR     BB  857   0.353   5.016   4.408 -0.1391 -0.1612  0.0282
    3TYR    SC1  858   0.516   5.284   4.505 -0.0115  0.0865 -0.3002
    3TYR    SC2  859   0.696   5.454   4.616 -0.0200  0.0496 -0.2290
    3TYR    SC3  860   0.625   5.482   4.357  0.0901  0.0636 -0.2580
    1TYR     BB  861   1.507   5.416   3.523 -0.1388  0.0509  0.0897
    1TYR    SC1  862   1.358   5.339   3.269  0.4494 -0.2237 -0.1689
    1TYR    SC2  863   1.191   5.189   3.121 -0.2356  0.1379  0.1775
    1TYR    SC3  864   1.214   5.453   3.072  0.0580  0.1382  0.2948
    2ASN     BB  865   1.601   5.267   3.715  0.0508 -0.0453  0.1958
    2ASN    SC1  866   1.521   5.276   3.992 -0.3920  0.1281  0.1846
    3TYR     BB  867   1.903   5.101   3.758 -0.2443 -0.2073  0.1133
    3TYR    SC1  868   1.784   4.813   3.850 -0.0537 -0.0715 -0.5494
    3TYR    SC2  869   1.747   4.548   3.816 -0.1175 -0.1250 -0.1262
    3TYR    SC3  870   1.553   4.699   3.929  0.0814  0.0174  0.0347
    1TYR     BB  871   0.795   4.327   5.364  0.3541 -0.0396 -0.1651
    1TYR    SC1  872   0.651   4.191   5.139 -0.4170  0.2416 -0.0001
    1TYR    SC2  873   0.665   4.025   4.927 -0.0342 -0.0611  0.2452
    1TYR    SC3  874   0.444   4.027   5.082 -0.1626 -0.1168  0.0682
    2ASN     BB  875   1.130   4.313   5.333 -0.3206  0.0842  0.0191
    2ASN    SC1  876   1.273   4.499   5.505  0.3098 -0.1658 -0.1123
    3TYR     BB  877   1.316   4.120   5.039 -0.0543 -0.1764  0.0969
    3TYR    SC1  878   1.535   4.240   4.840  0.2930  0.1291 -0.1120
    3TYR    SC2  879   1.554   4.437   4.655 -0.0282  0.2166 -0.0602
    3TYR    SC3  880   1.769   4.369   4.804  0.2094  0.2123 -0.3923
    1TYR     BB  881   5.435   4.430   4.377  0.2576 -0.0186  0.3713
    1TYR    SC1  882   5.647   4.300   4.184  0.1004 -0.1417  0.2158
    1TYR    SC2  883   5.840   4.371   4.010 -0.0629  0.1945  0.1627
    1TYR    SC3  884   5.777   4.110   4.041 -0.3255  0.1304 -0.6188
    2ASN     BB  885   5.284   4.659   4.244  0.1264  0.1200 -0.0753
    2ASN    SC1  886   5.349   4.694   3.933  0.4222  0.1343  0.2332
    3TYR     BB  887   5.087   4.809   4.334 -0.0835  0.1829 -0.0670
    3TYR    SC1  888   5.172   5.004   4.565 -0.4003 -0.1986  0.2566
    3TYR    SC2  889   5.175   5.054   4.830 -0.0763 -0.3597  0.2898
    3TYR    SC3  890   5.392   4.947   4.711 -0.1180 -0.0498 -0.0897
    1TYR     BB  891   4.532   3.968   4.390  0.1036 -0.3494 -0.1168
    1TYR    SC1  892   4.407   3.817   4.127  0.0281 -0.0694 -0.0629
    1TYR    SC2  893   4.276   3.644   3.966  0.0106 -0.1764  0.0648
    1TYR    SC3  894   4.318   3.898   3.885 -0.0162 -0.2233 -0.0993
    2ASN     BB  895   4.281   4.124   4.484  0.0805 -0.0925  0.0025
    2ASN    SC1  896   4.247   4.330   4.724  0.0406  0.1230  0.2914
    3TYR     BB  897   4.041   3.910   4.586 -0.0531 -0.0715  0.2426
    3TYR    SC1  898   4.170   3.634   4.478 -0.0004 -0.0905  0.0290
    3TYR    SC2  899   4.361   3.521   4.632  0.2777  0.3112 -0.0036
    3TYR    SC3  900   4.317   3.427   4.383  0.2741  0.0708  0.0849
    1TYR     BB  901   6.276   3.968   2.219  0.0446 -0.3888 -0.1046
    1TYR    SC1  902   6.177   4.292   2.226 -0.1395 -0.3466 -0.4584
    1TYR    SC2  903   5.979   4.461   2.154  0.0362  0.0161 -0.1354
    1TYR    SC3  904   6.216   4.468   2.025  0.0473  0.0244 -0.1146
    2ASN     BB  905   6.502   3.930   2.105 -0.0070  0.2233 -0.2039
    2ASN    SC1  906   6.513   3.717   1.855 -0.1800  0.0717  0.0763
    3TYR     BB  907   6.743   3.999   2.297 -0.0390  0.0155  0.1816
    3TYR    SC1  908   6.659   3.889   2.581 -0.0369 -0.4894 -0.0531
    3TYR    SC2  909   6.456   3.768   2.709 -0.0780 -0.2729  0.0923
    3TYR    SC3  910   6.642   3.905   2.850 -0.2755  0.2023 -0.0839
    1TYR     BB  911   6.293   2.493   3.099  0.0216 -0.2282 -0.1249
    1TYR    SC1  912   6.375   2.374   3.319  0.1598 -0.1431 -0.0786
    1TYR    SC2  913   6.281   2.385   3.573  0.1524  0.3273 -0.0893
    1TYR    SC3  914   6.374   2.152   3.472  0.2948  0.1611  0.3930
    2ASN     BB  915   6.632   2.409   2.872 -0.1491 -0.1202 -0.0148
    2ASN    SC1  916   6.539   2.134   2.879  0.1330  0.1314  0.0224
    3TYR     BB  917   6.868   2.636   3.001  0.2014 -0.0789  0.3947
    3TYR    SC1  918   7.116   2.497   3.033  0.0979  0.1230 -0.0236
    3TYR    SC2  919   7.375   2.441   2.982  0.0556  0.0114 -0.1193
    3TYR    SC3  920   7.269   2.379   3.223  0.1018  0.0030 -0.1009
    1TYR     BB  921   3.662   5.305   4.003  0.2930  0.0378 -0.0264
    1TYR    SC1  922   3.893   5.350   3.822 -0.4139  0.3231 -0.1649
    1TYR    SC2  923   4.102   5.476   3.707 -0.2971  0.1010 -0.2045
    1TYR    SC3  924   3.896   5.392   3.555 -0.1738 -0.1335 -0.2468
    2ASN     BB  925   3.470   5.162   3.736  0.0026 -0.0746  0.0649
    2ASN    SC1  926   3.346   5.358   3.493 -0.3611  0.1721 -0.0391
    3TYR     BB  927   3.187   5.035   3.851 -0.0284  0.0250 -0.1514
    3TYR    SC1  928   2.992   5.200   3.980  0.1633  0.0195 -0.0279
    3TYR    SC2  929   3.000   5.465   3.931 -0.0036 -0.0527 -0.5033
    3TYR    SC3  930   2.861   5.372   4.142  0.4521  0.2574 -0.0368
    1TYR     BB  931   1.973   3.024   2.597 -0.3237 -0.0054 -0.0697
    1TYR    SC1  932   1.825   2.755   2.602  0.0707  0.2316 -0.0606
    1TYR    SC2  933   1.576   2.661   2.557  0.0168  0.3299  0.0240
    1TYR    SC3  934   1.790   2.499   2.523 -0.0959  0.0329  0.5815
    2ASN     BB  935   2.296   2.916   2.792 -0.0489  0.2374  0.0020
    2ASN    SC1  936   2.445   2.843   2.489  0.1599 -0.0098 -0.0490
    3TYR     BB  937   2.348   2.927   3.058 -0.1047 -0.0314 -0.0864
    3TYR    SC1  938   2.324   3.108   3.311  0.1554 -0.3035  0.1397
    3TYR    SC2  939   2.260   3.076   3.572  0.3504 -0.0397  0.2243
    3TYR    SC3  940   2.478   3.221   3.503  0.2435 -0.0198 -0.0900
    1TYR     BB  941   6.343   3.396   2.296 -0.0336 -0.0277  0.2337
    1TYR    SC1  942   6.120   3.444   2.101 -0.1515 -0.3227  0.0641
    1TYR    SC2  943   5.864   3.377   2.051 -0.2227  0.0663 -0.1464
    1TYR    SC3  944   5.986   3.565   1.901  0.1362  0.0103  0.0593
    2ASN     BB  945   6.206   3.235   2.554  0.1057  0.1484  0.2767
    2ASN    SC1  946   5.991   3.034   2.500  0.2167 -0.2417  0.1690
    3TYR     BB  947   6.227   3.352   2.845 -0.0907  0.2170 -0.0149
    3TYR    SC1  948   6.082   3.209   3.081  0.0007  0.0948  0.3711
    3TYR    SC2  949   5.933   3.113   3.285 -0.1704 -0.2113  0.1145
    3TYR    SC3  950   5.963   2.967   3.060  0.0003  0.1244 -0.0904
    1TYR     BB  951   5.831   4.242   3.138 -0.2719  0.3128  0.0628
    1TYR    SC1  952   6.000   4.517   3.056  0.1425  0.1222  0.0172
    1TYR    SC2  953   6.222   4.670   3.060  0.2822 -0.0377 -0.5400
    1TYR    SC3  954   5.991   4.770   2.962  0.1415  0.0718 -0.1216
    2ASN     BB  955   5.618   4.458   3.311 -0.0176 -0.2283 -0.3573
    2ASN    SC1  956   5.480   4.762   3.238  0.1813 -0.0709  0.0891
    3TYR     BB  957   5.604   4.402   3.627  0.0688 -0.1596  0.3172
    3TYR    SC1  958   5.402   4.239   3.770 -0.0443  0.3058 -0.1246
    3TYR    SC2  959   5.209   4.051   3.760  0.2529 -0.0155 -0.0822
    3TYR    SC3  960   5.321   4.118   3.997  0.2652  0.0952 -0.1184
    1TYR     BB  961   6.440   3.564   4.312  0.1664  0.0909 -0.1048
    1TYR    SC1  962   6.133   3.589   4.207 -0.3048 -0.1250  0.0454
    1TYR    SC2  963   5.968   3.462   4.036 -0.1059  0.0965 -0.3298
    1TYR    SC3  964   5.991   3.730   4.025  0.1104  0.0902 -0.1313
    2ASN     BB  965   6.695   3.588   4.273 -0.0544  0.0462 -0.1274
    2ASN    SC1  966   6.839   3.454   4.056 -0.1998  0.2927 -0.0664
    3TYR     BB  967   6.911   3.540   4.580 -0.0170  0.0931 -0.0077
    3TYR    SC1  968   6.872   3.260   4.767 -0.1697  0.0773  0.5425
    3TYR    SC2  969   6.816   3.124   4.992 -0.2705 -0.5702  0.1566
    3TYR    SC3  970   6.817   2.996   4.754  0.0544  0.0368 -0.1975
    1TYR     BB  971   5.652   4.455   2.730  0.0054 -0.0122  0.3311
    1TYR    SC1  972   5.576   4.738   2.683  0.3076 -0.2195 -0.0563
    1TYR    SC2  973   5.667   4.955   2.552  0.3576 -0.2088 -0.0044
    1TYR    SC3  974   5.485   4.983   2.750 -0.4216 -0.2853 -0.6469
    2ASN     BB  975   5.916   4.399   2.613 -0.3638 -0.0650  0.0855
    2ASN    SC1  976   6.169   4.625   2.546  0.0636  0.1897  0.3025
    3TYR     BB  977   6.134   4.133   2.707  0.0275  0.5314 -0.0389
    3TYR    SC1  978   6.407   4.239   2.662  0.3050 -0.3435 -0.1910
    3TYR    SC2  979   6.618   4.365   2.549  0.4050 -0.4231 -0.0942
    3TYR    SC3  980   6.610   4.326   2.816  0.0313  0.0355 -0.0224
    1TYR     BB  981   2.137   3.105   4.407 -0.2073 -0.0005  0.1224
    1TYR    SC1  982   2.208   3.400   4.480  0.2924 -0.0296 -0.0659
    1TYR    SC2  983   2.145   3.655   4.544  0.1127  0.0000 -0.3400
    1TYR    SC3  984   2.399   3.567   4.574  0.1481  0.1683 -0.1162
    2ASN     BB  985   2.001   2.901   4.516 -0.0812 -0.1994  0.2085
    2ASN    SC1  986   1.758   2.745   4.358  0.0755  0.1703  0.0624
    3TYR     BB  987   1.872   2.865   4.810 -0.3362 -0.0099 -0.0836
    3TYR    SC1  988   2.096   3.121   4.915  0.4662 -0.2309  0.1897
    3TYR    SC2  989   2.348   3.217   4.924  0.3697  0.0537  0.0116
    3TYR    SC3  990   2.138   3.387   4.926  0.1952 -0.1338 -0.4835
    1TYR     BB  991   3.309   3.230   4.085 -0.1840  0.2855 -0.2366
    1TYR    SC1  992   3.052   3.295   3.894  0.2108  0.3527 -0.1257
    1TYR    SC2  993   2.787   3.338   3.871  0.1652  0.2852  0.2002
    1TYR    SC3  994   2.914   3.179   3.693 -0.0259  0.2563  0.0862
    2ASN     BB  995   3.183   3.163   4.388  0.3425  0.4937 -0.3339
    2ASN    SC1  996   3.161   2.869   4.525  0.2844  0.1031 -0.0158
    3TYR     BB  997   3.319   3.327   4.624  0.1043 -0.1564  0.1198
    3TYR    SC1  998   3.157   3.558   4.714 -0.2411  0.2673  0.1351
    3TYR    SC2  999   3.024   3.609   4.943 -0.2095  0.2864  0.1491
    3TYR    SC3 1000   2.888   3.585   4.711 -0.2850 -0.0935  0.2247
   7.63541   7.63541   7.63541
