Generated by trjconv : Martini system from ../2_Creating_coordinates/TYR-ILE-TYR_aa.pdb t=   0.00000
 1000
    1TYR     BB    1   1.872   3.540   5.414 -0.0364 -0.0858 -0.2683
    1TYR    SC1    2   2.155   3.543   5.426 -0.2975  0.3782 -0.0263
    1TYR    SC2    3   2.384   3.673   5.361 -0.1302  0.1796  0.1492
    1TYR    SC3    4   2.369   3.530   5.591 -0.2847 -0.1606 -0.0605
    2ILE     BB    5   1.688   3.366   5.204  0.1122 -0.1833 -0.1287
    2ILE    SC1    6   1.652   3.570   4.974 -0.0718  0.0623  0.1101
    3TYR     BB    7   1.548   3.073   5.283 -0.1719  0.0957 -0.0964
    3TYR    SC1    8   1.572   2.949   5.537  0.2388 -0.0974 -0.1708
    3TYR    SC2    9   1.657   3.096   5.746 -0.2929 -0.0495  0.0324
    3TYR    SC3   10   1.500   2.882   5.789 -0.3522 -0.0831 -0.3174
    1TYR     BB   11   1.153   3.417   5.181 -0.2352 -0.0877 -0.2572
    1TYR    SC1   12   1.258   3.265   4.935 -0.1678 -0.0844 -0.1057
    1TYR    SC2   13   1.427   3.161   4.751  0.1024  0.3899 -0.1459
    1TYR    SC3   14   1.237   3.338   4.676  0.0338  0.3782 -0.0047
    2ILE     BB   15   1.067   3.699   5.091 -0.0028  0.0164  0.2038
    2ILE    SC1   16   1.228   3.807   4.849 -0.2403 -0.2367 -0.0770
    3TYR     BB   17   0.911   3.891   5.305 -0.0066  0.0853  0.1047
    3TYR    SC1   18   0.797   4.152   5.256  0.1808  0.1798 -0.2422
    3TYR    SC2   19   0.533   4.194   5.296  0.1977 -0.0023  0.1174
    3TYR    SC3   20   0.712   4.391   5.348  0.1439  0.0902 -0.0369
    1TYR     BB   21   6.842   2.628   4.286 -0.2859  0.0621 -0.3154
    1TYR    SC1   22   6.635   2.856   4.367  0.0238 -0.0897  0.1289
    1TYR    SC2   23   6.560   3.001   4.582  0.2516  0.2571 -0.0143
    1TYR    SC3   24   6.390   2.968   4.375  0.0492 -0.0375  0.1888
    2ILE     BB   25   7.068   2.795   4.083  0.1054 -0.0640 -0.1347
    2ILE    SC1   26   7.204   2.624   3.864 -0.1265 -0.2783 -0.1164
    3TYR     BB   27   6.984   3.114   3.911  0.1470  0.1204  0.3392
    3TYR    SC1   28   6.726   3.214   4.088  0.1557  0.0166 -0.0862
    3TYR    SC2   29   6.573   3.348   4.265  0.0693 -0.1117 -0.0618
    3TYR    SC3   30   6.474   3.285   4.022  0.0298 -0.3233  0.0076
    1TYR     BB   31   5.254   4.666   4.386  0.0080  0.1512  0.1081
    1TYR    SC1   32   5.291   4.947   4.232 -0.3512 -0.1776 -0.6274
    1TYR    SC2   33   5.407   5.127   4.068 -0.0913  0.2261 -0.0426
    1TYR    SC3   34   5.167   5.181   4.179 -0.2000  0.0201 -0.1694
    2ILE     BB   35   5.368   4.487   4.593 -0.0456  0.0392 -0.1771
    2ILE    SC1   36   5.239   4.206   4.573 -0.1608  0.0922 -0.1841
    3TYR     BB   37   5.704   4.338   4.510 -0.1605 -0.1060  0.5514
    3TYR    SC1   38   5.824   4.543   4.307  0.1461  0.0303 -0.2083
    3TYR    SC2   39   5.949   4.695   4.122 -0.0989  0.1964 -0.2436
    3TYR    SC3   40   5.734   4.792   4.253  0.0350  0.0601  0.0917
    1TYR     BB   41   1.399   3.497   5.651 -0.1880  0.1867  0.2557
    1TYR    SC1   42   1.348   3.794   5.490 -0.0501  0.0019  0.0628
    1TYR    SC2   43   1.494   3.899   5.288 -0.2295 -0.0092 -0.0758
    1TYR    SC3   44   1.346   4.062   5.447  0.0659  0.0231  0.1794
    2ILE     BB   45   1.159   3.336   5.721 -0.0157  0.0648 -0.1210
    2ILE    SC1   46   0.947   3.558   5.683 -0.0576  0.0406 -0.0312
    3TYR     BB   47   1.057   3.088   5.599  0.1664 -0.0300  0.0976
    3TYR    SC1   48   0.794   3.050   5.843 -0.0429  0.0559 -0.0767
    3TYR    SC2   49   0.713   3.048   6.100  0.0173  0.2527 -0.0533
    3TYR    SC3   50   0.544   2.968   5.905 -0.0535  0.1711  0.0396
    1TYR     BB   51   2.051   3.425   4.807 -0.1599  0.1736  0.1831
    1TYR    SC1   52   1.931   3.288   4.597 -0.2195 -0.0724  0.0110
    1TYR    SC2   53   1.706   3.258   4.450 -0.1378 -0.3272 -0.0674
    1TYR    SC3   54   1.936   3.334   4.331 -0.2075  0.0650  0.0343
    2ILE     BB   55   2.350   3.448   4.858  0.1172  0.0178 -0.0977
    2ILE    SC1   56   2.479   3.166   4.855  0.2653  0.0738  0.2884
    3TYR     BB   57   2.540   3.740   4.824 -0.1432  0.0927 -0.0688
    3TYR    SC1   58   2.733   3.878   5.048 -0.2103  0.2448  0.1845
    3TYR    SC2   59   2.767   3.885   5.315 -0.2081  0.0180  0.1939
    3TYR    SC3   60   2.806   4.109   5.167  0.0658  0.0795  0.3490
    1TYR     BB   61   2.263   2.522   2.502  0.4252  0.3199  0.1657
    1TYR    SC1   62   1.956   2.547   2.606  0.3837  0.0288  0.1200
    1TYR    SC2   63   1.737   2.451   2.731  0.3390 -0.1231 -0.0677
    1TYR    SC3   64   1.718   2.673   2.577  0.3914  0.0565  0.1760
    2ILE     BB   65   2.358   2.832   2.389 -0.4212 -0.2944  0.0415
    2ILE    SC1   66   2.526   2.784   2.133 -0.0023  0.2342  0.1912
    3TYR     BB   67   2.590   3.102   2.513 -0.0799  0.2328  0.1500
    3TYR    SC1   68   2.481   3.326   2.633  0.3586  0.1200  0.3020
    3TYR    SC2   69   2.302   3.529   2.648 -0.2834 -0.3798 -0.0173
    3TYR    SC3   70   2.374   3.396   2.872  0.0123  0.0685  0.1699
    1TYR     BB   71   4.852   4.073   4.314  0.2020  0.0737  0.3337
    1TYR    SC1   72   4.725   4.310   4.461 -0.1027  0.1587 -0.0395
    1TYR    SC2   73   4.582   4.367   4.683  0.3174  0.0391  0.2776
    1TYR    SC3   74   4.831   4.469   4.652  0.4381 -0.2982  0.0727
    2ILE     BB   75   4.766   3.894   4.192 -0.0578  0.2182 -0.0375
    2ILE    SC1   76   4.702   3.791   3.907 -0.0899 -0.0430  0.0620
    3TYR     BB   77   4.764   3.562   4.345  0.0915  0.1672 -0.0363
    3TYR    SC1   78   4.469   3.455   4.323  0.0437  0.2153  0.0450
    3TYR    SC2   79   4.215   3.391   4.256  0.1765  0.0203 -0.3087
    3TYR    SC3   80   4.288   3.404   4.516 -0.1991  0.1156 -0.2010
    1TYR     BB   81  -0.011   4.649   3.828 -0.2685  0.2488 -0.0294
    1TYR    SC1   82   0.188   4.612   3.576 -0.0567 -0.1886 -0.0735
    1TYR    SC2   83   0.439   4.598   3.477  0.0400  0.1471  0.1052
    1TYR    SC3   84   0.234   4.484   3.343  0.3135 -0.3460  0.0761
    2ILE     BB   85   0.081   4.841   4.089  0.2436  0.2092  0.1698
    2ILE    SC1   86  -0.147   5.049   4.062 -0.0995 -0.1574  0.1330
    3TYR     BB   87   0.163   4.871   4.430  0.1738  0.2834 -0.1407
    3TYR    SC1   88  -0.039   4.799   4.646  0.4101  0.2625 -0.1091
    3TYR    SC2   89  -0.177   4.658   4.831  0.4249  0.0188 -0.2777
    3TYR    SC3   90   0.020   4.827   4.908  0.3685 -0.0087 -0.0673
    1TYR     BB   91   6.270   3.709   3.599 -0.2011 -0.0511 -0.1106
    1TYR    SC1   92   6.570   3.635   3.659 -0.0449  0.1237 -0.1301
    1TYR    SC2   93   6.797   3.708   3.532  0.1676 -0.0030  0.1617
    1TYR    SC3   94   6.809   3.603   3.781 -0.2025 -0.1517  0.1255
    2ILE     BB   95   6.105   3.532   3.804 -0.0073 -0.0714 -0.3053
    2ILE    SC1   96   6.134   3.286   3.618  0.2046 -0.1998 -0.1081
    3TYR     BB   97   6.082   3.575   4.116  0.4078  0.2885  0.0046
    3TYR    SC1   98   6.382   3.752   4.166 -0.0132 -0.2809  0.1847
    3TYR    SC2   99   6.636   3.828   4.116 -0.1041  0.0282  0.1719
    3TYR    SC3  100   6.559   3.777   4.369 -0.0789  0.1330  0.2018
    1TYR     BB  101   4.419   2.723   2.500  0.0108 -0.1237  0.2648
    1TYR    SC1  102   4.148   2.753   2.338  0.0528  0.0795 -0.4174
    1TYR    SC2  103   3.905   2.694   2.441  0.2408  0.0984  0.0752
    1TYR    SC3  104   3.924   2.832   2.210 -0.2110  0.0866  0.0189
    2ILE     BB  105   4.544   3.068   2.639 -0.0093  0.0853 -0.0386
    2ILE    SC1  106   4.706   2.999   2.895  0.0777 -0.1167 -0.1442
    3TYR     BB  107   4.588   3.369   2.514  0.0824  0.1557  0.0790
    3TYR    SC1  108   4.350   3.534   2.485 -0.1974 -0.0029  0.0590
    3TYR    SC2  109   4.264   3.766   2.380  0.2418  0.2069  0.1378
    3TYR    SC3  110   4.188   3.695   2.629 -0.1489  0.1016 -0.0027
    1TYR     BB  111   1.986   4.374   4.681 -0.3240 -0.0312  0.3284
    1TYR    SC1  112   2.032   4.560   4.877  0.2433 -0.2943 -0.0898
    1TYR    SC2  113   1.938   4.767   5.022 -0.4388 -0.4365 -0.2850
    1TYR    SC3  114   2.157   4.634   5.105 -0.0973  0.2158 -0.0468
    2ILE     BB  115   2.163   4.171   4.438 -0.0353  0.0645  0.0865
    2ILE    SC1  116   2.124   3.906   4.594 -0.0408  0.0881  0.1256
    3TYR     BB  117   2.491   4.153   4.399 -0.1330  0.2152 -0.1144
    3TYR    SC1  118   2.719   3.960   4.341  0.1970  0.4867 -0.1478
    3TYR    SC2  119   2.928   3.801   4.401  0.0295  0.2583 -0.1549
    3TYR    SC3  120   2.787   3.759   4.175 -0.4424 -0.0407  0.1724
    1TYR     BB  121   0.518   4.102   3.740 -0.1757  0.0086  0.2559
    1TYR    SC1  122   0.419   4.347   3.907 -0.0049 -0.3131  0.0318
    1TYR    SC2  123   0.487   4.591   3.998  0.0253 -0.2664 -0.1120
    1TYR    SC3  124   0.314   4.438   4.138 -0.1362 -0.0881 -0.1120
    2ILE     BB  125   0.698   3.939   3.788  0.0546 -0.1700 -0.2788
    2ILE    SC1  126   0.777   3.831   3.509 -0.0927 -0.0742 -0.3597
    3TYR     BB  127   0.671   3.641   3.918  0.1906  0.2107 -0.0320
    3TYR    SC1  128   0.514   3.569   4.183  0.3946  0.1126  0.0639
    3TYR    SC2  129   0.279   3.443   4.226  0.4751 -0.1985 -0.3355
    3TYR    SC3  130   0.484   3.411   4.400  0.1542  0.3040  0.1762
    1TYR     BB  131   1.634   3.685   3.774  0.1730 -0.0949 -0.0655
    1TYR    SC1  132   1.379   3.523   3.725 -0.1680 -0.2013 -0.0533
    1TYR    SC2  133   1.111   3.535   3.757 -0.1781  0.0343 -0.1982
    1TYR    SC3  134   1.222   3.331   3.620 -0.2548 -0.2162  0.0994
    2ILE     BB  135   1.826   3.620   3.911  0.0558 -0.0697 -0.0423
    2ILE    SC1  136   1.998   3.366   3.857  0.3076  0.1981 -0.5948
    3TYR     BB  137   2.025   3.782   4.098 -0.0685  0.0258 -0.2449
    3TYR    SC1  138   2.264   3.661   4.182 -0.0881  0.0910 -0.0397
    3TYR    SC2  139   2.455   3.475   4.143 -0.0172  0.1490  0.0277
    3TYR    SC3  140   2.390   3.550   4.393  0.1531  0.4173 -0.0040
    1TYR     BB  141   2.026   2.232   5.114  0.2042  0.1453  0.3460
    1TYR    SC1  142   1.771   2.255   4.969 -0.1523 -0.2751  0.0555
    1TYR    SC2  143   1.712   2.300   4.709 -0.2056 -0.0259  0.1077
    1TYR    SC3  144   1.531   2.181   4.870 -0.2805  0.0652  0.0922
    2ILE     BB  145   2.142   2.498   5.233  0.0846  0.0383 -0.1656
    2ILE    SC1  146   2.392   2.609   5.086  0.0765  0.1029 -0.1315
    3TYR     BB  147   1.880   2.646   5.361  0.1219 -0.1225  0.0144
    3TYR    SC1  148   1.618   2.486   5.427 -0.1823 -0.3100  0.0600
    3TYR    SC2  149   1.368   2.544   5.513 -0.1807  0.0147 -0.1358
    3TYR    SC3  150   1.407   2.346   5.333 -0.2862 -0.0814 -0.0548
    1TYR     BB  151   2.680   3.254   1.993 -0.0800 -0.0039 -0.1979
    1TYR    SC1  152   2.379   3.319   2.113 -0.0945  0.0243  0.0784
    1TYR    SC2  153   2.178   3.273   2.287 -0.3770  0.1111 -0.2124
    1TYR    SC3  154   2.259   3.525   2.240 -0.0837  0.0675  0.0189
    2ILE     BB  155   2.902   3.423   2.233  0.1995 -0.0547  0.0543
    2ILE    SC1  156   2.719   3.659   2.315  0.2123 -0.0275  0.0052
    3TYR     BB  157   3.022   3.269   2.437  0.1473 -0.4727  0.2493
    3TYR    SC1  158   3.079   2.997   2.239  0.1574  0.0207 -0.3296
    3TYR    SC2  159   2.996   2.747   2.178  0.3928 -0.1515  0.0164
    3TYR    SC3  160   3.231   2.839   2.081  0.2865 -0.0453 -0.1446
    1TYR     BB  161   4.566   4.458   3.037  0.3474 -0.1618  0.0991
    1TYR    SC1  162   4.521   4.735   2.891  0.0355  0.0204  0.1129
    1TYR    SC2  163   4.339   4.927   2.947  0.1759  0.1729  0.0559
    1TYR    SC3  164   4.467   4.927   2.709  0.1206 -0.0394  0.0232
    2ILE     BB  165   4.772   4.386   3.162  0.0487 -0.0229  0.2622
    2ILE    SC1  166   4.911   4.116   3.101  0.2789  0.1595 -0.0612
    3TYR     BB  167   4.882   4.590   3.456  0.3425 -0.1754 -0.2128
    3TYR    SC1  168   4.803   4.881   3.335 -0.1913 -0.3357  0.0507
    3TYR    SC2  169   4.728   5.134   3.392 -0.0954 -0.4001  0.5137
    3TYR    SC3  170   4.728   5.048   3.137  0.1220  0.1456  0.3104
    1TYR     BB  171   8.128   4.510   2.378 -0.0448  0.2159  0.1091
    1TYR    SC1  172   7.899   4.303   2.289 -0.0948 -0.0750 -0.0832
    1TYR    SC2  173   7.754   4.075   2.294  0.1247 -0.2188 -0.0797
    1TYR    SC3  174   7.714   4.256   2.098 -0.2881 -0.0954  0.1043
    2ILE     BB  175   8.384   4.267   2.220 -0.1415  0.1148  0.1224
    2ILE    SC1  176   8.494   4.463   2.006 -0.0278 -0.2289 -0.1469
    3TYR     BB  177   8.298   4.022   2.150 -0.0910  0.2993  0.0627
    3TYR    SC1  178   8.026   3.951   1.965  0.0956  0.3408 -0.4644
    3TYR    SC2  179   7.901   4.009   1.732 -0.3373  0.0720 -0.3144
    3TYR    SC3  180   7.849   3.776   1.859  0.0392  0.1254 -0.0399
    1TYR     BB  181   2.565   4.632   3.681  0.0780  0.1898  0.0670
    1TYR    SC1  182   2.437   4.889   3.703  0.0091  0.0862 -0.3227
    1TYR    SC2  183   2.225   5.053   3.733 -0.0119  0.0234 -0.1035
    1TYR    SC3  184   2.424   5.119   3.562 -0.2056  0.0830 -0.3123
    2ILE     BB  185   2.437   4.323   3.719  0.0266  0.1919 -0.1936
    2ILE    SC1  186   2.412   4.208   3.433  0.0932 -0.0873 -0.0909
    3TYR     BB  187   2.400   4.117   3.934  0.1166  0.5669  0.1255
    3TYR    SC1  188   2.507   3.832   3.813  0.1623 -0.0576 -0.0344
    3TYR    SC2  189   2.677   3.702   3.647 -0.3318 -0.3803 -0.3206
    3TYR    SC3  190   2.461   3.574   3.747 -0.1910 -0.1182  0.3928
    1TYR     BB  191   6.070   3.628   2.720  0.1783  0.2476  0.3384
    1TYR    SC1  192   5.929   3.356   2.651 -0.0851  0.0960 -0.1842
    1TYR    SC2  193   6.040   3.220   2.446  0.1044  0.0960 -0.0841
    1TYR    SC3  194   5.851   3.102   2.598  0.0194  0.0684 -0.2098
    2ILE     BB  195   5.985   3.851   2.795  0.1711  0.0467 -0.1918
    2ILE    SC1  196   5.749   4.018   2.684  0.1100  0.1490  0.0800
    3TYR     BB  197   6.142   4.162   2.879  0.1841 -0.0711 -0.0263
    3TYR    SC1  198   6.264   4.422   2.919 -0.1003  0.1484  0.2049
    3TYR    SC2  199   6.395   4.589   3.086 -0.1869  0.2051  0.2175
    3TYR    SC3  200   6.219   4.688   2.907  0.0984  0.1738 -0.0929
    1TYR     BB  201   2.761   2.832   3.236 -0.1714  0.2614 -0.1539
    1TYR    SC1  202   2.928   2.839   3.523 -0.5339  0.2886 -0.1516
    1TYR    SC2  203   2.991   2.959   3.756 -0.2336 -0.3107  0.1068
    1TYR    SC3  204   3.159   2.778   3.649 -0.3444 -0.0290 -0.6160
    2ILE     BB  205   2.793   3.095   3.047 -0.2461 -0.0085  0.1572
    2ILE    SC1  206   2.816   3.305   3.274 -0.1495  0.1367  0.0158
    3TYR     BB  207   2.955   3.064   2.845  0.0046  0.1783 -0.1212
    3TYR    SC1  208   2.945   2.761   2.720  0.0194 -0.1101  0.2241
    3TYR    SC2  209   3.075   2.530   2.677  0.0622 -0.1735  0.6391
    3TYR    SC3  210   2.828   2.565   2.576  0.3106 -0.1202 -0.0086
    1TYR     BB  211   2.453   4.439   2.062 -0.0387 -0.1255 -0.1035
    1TYR    SC1  212   2.170   4.477   2.052 -0.0598  0.2746 -0.0624
    1TYR    SC2  213   1.929   4.415   2.157  0.0100  0.1797  0.0449
    1TYR    SC3  214   1.952   4.620   1.983 -0.2244 -0.0743 -0.2998
    2ILE     BB  215   2.462   4.087   2.114 -0.0292 -0.0569  0.0652
    2ILE    SC1  216   2.387   4.018   2.407  0.0629  0.0994  0.1269
    3TYR     BB  217   2.510   3.820   1.881 -0.4007  0.0101  0.0088
    3TYR    SC1  218   2.814   3.817   1.827  0.0314 -0.0447 -0.2178
    3TYR    SC2  219   2.973   3.965   1.987 -0.3442  0.4493 -0.2726
    3TYR    SC3  220   3.078   3.836   1.775  0.0123  0.5706 -0.1786
    1TYR     BB  221   0.489   4.656   2.891  0.1357 -0.2105  0.1917
    1TYR    SC1  222   0.494   4.930   2.715  0.1819 -0.3186  0.0050
    1TYR    SC2  223   0.402   5.172   2.639  0.0221 -0.2647  0.3470
    1TYR    SC3  224   0.513   5.006   2.457  0.2863  0.1277  0.1336
    2ILE     BB  225   0.659   4.443   2.985  0.2145 -0.1603  0.0301
    2ILE    SC1  226   0.759   4.274   2.745 -0.1220  0.3777 -0.5248
    3TYR     BB  227   0.702   4.231   3.207 -0.1264  0.4989 -0.0283
    3TYR    SC1  228   0.829   4.366   3.435  0.0918 -0.3513 -0.0120
    3TYR    SC2  229   0.829   4.465   3.686  0.0185 -0.2598 -0.0471
    3TYR    SC3  230   0.972   4.587   3.492  0.0851 -0.3375 -0.0476
    1TYR     BB  231   5.761   4.176   2.215 -0.0377  0.0577 -0.0190
    1TYR    SC1  232   5.768   4.463   2.119  0.3193  0.2393  0.2076
    1TYR    SC2  233   5.750   4.733   2.125  0.0004  0.2502 -0.3356
    1TYR    SC3  234   5.894   4.610   1.931 -0.1261  0.0271 -0.2936
    2ILE     BB  235   5.914   3.981   2.085  0.2232  0.3198  0.1415
    2ILE    SC1  236   5.978   3.975   1.782 -0.1388 -0.1146  0.0607
    3TYR     BB  237   5.877   3.680   2.214  0.1741  0.0638  0.0612
    3TYR    SC1  238   6.047   3.558   2.008  0.0504  0.1476  0.0440
    3TYR    SC2  239   6.110   3.324   1.891 -0.1720  0.1554 -0.0992
    3TYR    SC3  240   6.236   3.549   1.816 -0.0070  0.0952 -0.0106
    1TYR     BB  241   2.832   4.069   3.310 -0.2393 -0.2589  0.0090
    1TYR    SC1  242   3.060   3.858   3.279  0.1472  0.0303 -0.1177
    1TYR    SC2  243   3.147   3.615   3.355  0.0647  0.0496  0.0451
    1TYR    SC3  244   3.322   3.819   3.332  0.1874 -0.0894 -0.3843
    2ILE     BB  245   2.965   4.339   3.262 -0.4095  0.3252  0.2538
    2ILE    SC1  246   3.033   4.448   3.544  0.2183  0.4777  0.0616
    3TYR     BB  247   3.007   4.577   3.055  0.1613 -0.3856 -0.2060
    3TYR    SC1  248   3.267   4.710   3.159 -0.0329 -0.2915 -0.2131
    3TYR    SC2  249   3.511   4.818   3.114 -0.0714  0.0086  0.2253
    3TYR    SC3  250   3.404   4.823   3.363 -0.4364 -0.3174  0.0884
    1TYR     BB  251   3.258   2.951   4.224 -0.2307  0.0231 -0.1156
    1TYR    SC1  252   3.507   2.891   4.344  0.3022  0.1865  0.1519
    1TYR    SC2  253   3.609   2.694   4.497 -0.0115 -0.0772  0.0340
    1TYR    SC3  254   3.707   2.736   4.249  0.2749  0.1361  0.1765
    2ILE     BB  255   3.011   3.036   4.446  0.1719  0.0100 -0.1572
    2ILE    SC1  256   2.751   3.199   4.392  0.0958 -0.0800 -0.0650
    3TYR     BB  257   3.018   2.880   4.687  0.0251 -0.1223 -0.1022
    3TYR    SC1  258   3.239   2.806   4.912 -0.2697 -0.0904 -0.0370
    3TYR    SC2  259   3.388   2.773   5.135  0.0054  0.2157 -0.1654
    3TYR    SC3  260   3.473   2.673   4.899  0.0987  0.5259 -0.2700
    1TYR     BB  261   5.737   3.369   4.439 -0.0849 -0.0868  0.1362
    1TYR    SC1  262   5.728   3.254   4.732  0.1487 -0.0165 -0.1797
    1TYR    SC2  263   5.651   3.378   4.959  0.4888 -0.1162 -0.0010
    1TYR    SC3  264   5.683   3.110   4.956  0.2418 -0.1486 -0.2438
    2ILE     BB  265   5.938   3.095   4.236  0.3658 -0.3184 -0.1379
    2ILE    SC1  266   5.919   2.909   4.483  0.1310 -0.0488  0.0562
    3TYR     BB  267   6.029   3.080   3.993  0.1036  0.1292  0.0270
    3TYR    SC1  268   6.280   2.922   3.960 -0.2286  0.2481 -0.1797
    3TYR    SC2  269   6.526   2.873   3.858 -0.0657  0.4946  0.0756
    3TYR    SC3  270   6.406   2.689   4.015 -0.0493  0.3709 -0.0543
    1TYR     BB  271   7.152   4.143   3.446 -0.0983 -0.0607 -0.2271
    1TYR    SC1  272   6.995   4.400   3.399 -0.1030 -0.0809  0.0215
    1TYR    SC2  273   6.795   4.540   3.284 -0.1821 -0.1791  0.0394
    1TYR    SC3  274   6.912   4.634   3.508 -0.1149 -0.0527 -0.0475
    2ILE     BB  275   7.160   3.879   3.318  0.0108 -0.0521 -0.1372
    2ILE    SC1  276   6.974   3.847   3.072  0.0057 -0.3311 -0.1010
    3TYR     BB  277   7.442   3.759   3.239 -0.0473  0.2034  0.0195
    3TYR    SC1  278   7.703   3.876   3.341 -0.0252  0.0752 -0.0867
    3TYR    SC2  279   7.954   3.780   3.364 -0.1263 -0.1870 -0.0230
    3TYR    SC3  280   7.913   4.043   3.318  0.1578 -0.1452 -0.0598
    1TYR     BB  281   3.453   4.206   3.709 -0.2057  0.1705 -0.3327
    1TYR    SC1  282   3.459   4.437   3.862 -0.2069 -0.1413  0.2717
    1TYR    SC2  283   3.393   4.604   4.063 -0.2353 -0.0262  0.1681
    1TYR    SC3  284   3.316   4.660   3.811  0.0403 -0.0195  0.0806
    2ILE     BB  285   3.457   3.966   3.987 -0.2311  0.1491 -0.1109
    2ILE    SC1  286   3.385   3.701   3.843  0.0467  0.0952 -0.1577
    3TYR     BB  287   3.630   3.976   4.171  0.0868 -0.1202  0.0696
    3TYR    SC1  288   3.871   3.890   4.376  0.4197  0.1311  0.0977
    3TYR    SC2  289   3.924   4.021   4.606  0.1587  0.0255  0.2237
    3TYR    SC3  290   3.940   3.752   4.597 -0.1706  0.0006  0.2239
    1TYR     BB  291   5.652   3.095   3.429 -0.2929  0.0617 -0.0515
    1TYR    SC1  292   5.875   2.848   3.479  0.0590 -0.3993 -0.3381
    1TYR    SC2  293   6.141   2.806   3.485  0.1465  0.0899 -0.0674
    1TYR    SC3  294   5.982   2.693   3.671  0.1648 -0.1606 -0.1982
    2ILE     BB  295   5.636   3.328   3.596 -0.1568 -0.0362  0.0926
    2ILE    SC1  296   5.417   3.510   3.472  0.0347  0.1839  0.0677
    3TYR     BB  297   5.537   3.305   3.935 -0.2636 -0.1542  0.1631
    3TYR    SC1  298   5.521   2.981   3.954  0.3693  0.1625  0.1860
    3TYR    SC2  299   5.537   2.780   4.134  0.4794  0.0832  0.0897
    3TYR    SC3  300   5.593   2.733   3.875  0.0145  0.1197 -0.0283
    1TYR     BB  301   1.552   4.745   3.670 -0.0919 -0.0149 -0.0453
    1TYR    SC1  302   1.604   4.574   3.325 -0.0789 -0.2456  0.0088
    1TYR    SC2  303   1.704   4.397   3.147  0.5737  0.3559 -0.2851
    1TYR    SC3  304   1.665   4.654   3.075 -0.1670  0.4131  0.1742
    2ILE     BB  305   1.316   4.911   3.562  0.0429 -0.0393  0.0109
    2ILE    SC1  306   1.216   5.114   3.774  0.0960  0.1129 -0.1077
    3TYR     BB  307   1.298   4.973   3.259  0.3373 -0.0381 -0.0244
    3TYR    SC1  308   1.208   4.739   3.065 -0.4225 -0.1421 -0.4450
    3TYR    SC2  309   1.187   4.472   3.033 -0.2596 -0.1511 -0.4894
    3TYR    SC3  310   1.271   4.626   2.828  0.1664 -0.1324 -0.3123
    1TYR     BB  311   4.390   4.580   3.487 -0.2188  0.0104 -0.1732
    1TYR    SC1  312   4.473   4.785   3.766 -0.3138  0.3075 -0.2014
    1TYR    SC2  313   4.530   4.932   3.985  0.1069 -0.1159 -0.0035
    1TYR    SC3  314   4.279   4.839   3.946 -0.0416  0.2064  0.1357
    2ILE     BB  315   4.450   4.320   3.653  0.0647 -0.0295 -0.3582
    2ILE    SC1  316   4.610   4.101   3.503  0.0831 -0.2720  0.0022
    3TYR     BB  317   4.439   4.280   3.986 -0.0796 -0.1750  0.0477
    3TYR    SC1  318   4.388   4.488   4.175 -0.1743  0.0331 -0.1250
    3TYR    SC2  319   4.181   4.574   4.325 -0.1376  0.1839 -0.1587
    3TYR    SC3  320   4.424   4.687   4.353 -0.1175  0.1754 -0.2921
    1TYR     BB  321   1.764   5.100   3.207  0.0494 -0.2193  0.2446
    1TYR    SC1  322   1.729   5.189   3.461 -0.0242  0.0269 -0.1626
    1TYR    SC2  323   1.628   5.385   3.617  0.1036 -0.0565  0.0305
    1TYR    SC3  324   1.839   5.239   3.703 -0.0583 -0.3537 -0.0587
    2ILE     BB  325   1.690   5.113   2.877  0.1289  0.1608 -0.2221
    2ILE    SC1  326   1.564   5.396   2.887  0.0306  0.1235 -0.3664
    3TYR     BB  327   1.536   4.958   2.580 -0.2341 -0.2894 -0.0046
    3TYR    SC1  328   1.790   5.036   2.400  0.3281 -0.0568  0.0792
    3TYR    SC2  329   1.874   4.997   2.147 -0.0736 -0.0271 -0.0668
    3TYR    SC3  330   1.969   5.205   2.289  0.2360 -0.1052 -0.1499
    1TYR     BB  331   7.324   3.518   3.693 -0.0307  0.1426  0.0955
    1TYR    SC1  332   7.154   3.371   3.519  0.0762 -0.1512  0.0656
    1TYR    SC2  333   6.981   3.346   3.313 -0.1288  0.1258  0.1968
    1TYR    SC3  334   7.213   3.208   3.311 -0.1324  0.1088 -0.2080
    2ILE     BB  335   7.622   3.461   3.634 -0.2791  0.1307 -0.2486
    2ILE    SC1  336   7.679   3.356   3.348 -0.0219  0.1655 -0.2127
    3TYR     BB  337   7.803   3.669   3.815 -0.1476 -0.2166 -0.3395
    3TYR    SC1  338   7.710   3.976   3.834 -0.1023 -0.0240  0.3184
    3TYR    SC2  339   7.593   4.185   3.958  0.0165  0.2276  0.0223
    3TYR    SC3  340   7.622   4.187   3.690  0.0979 -0.1347  0.0230
    1TYR     BB  341  -0.660   4.089   4.281  0.1228 -0.0002 -0.1687
    1TYR    SC1  342  -0.560   4.244   4.510 -0.0021 -0.0378 -0.0812
    1TYR    SC2  343  -0.615   4.325   4.762  0.1565 -0.1749 -0.0003
    1TYR    SC3  344  -0.359   4.284   4.686  0.1285  0.0834 -0.2538
    2ILE     BB  345  -0.513   4.168   4.037  0.2745  0.1246 -0.0003
    2ILE    SC1  346  -0.478   3.909   3.872 -0.0477  0.0557  0.0319
    3TYR     BB  347  -0.472   4.478   3.863  0.1759 -0.1178 -0.1682
    3TYR    SC1  348  -0.403   4.619   4.126 -0.0693 -0.2158 -0.1380
    3TYR    SC2  349  -0.411   4.712   4.379  0.3209  0.1923 -0.2581
    3TYR    SC3  350  -0.263   4.494   4.320  0.1438  0.0317 -0.1246
    1TYR     BB  351   8.191   2.861   4.120 -0.0357 -0.1667 -0.0020
    1TYR    SC1  352   7.969   2.938   4.342 -0.1119 -0.0619  0.0394
    1TYR    SC2  353   7.938   3.063   4.579  0.0601  0.0975 -0.0193
    1TYR    SC3  354   7.803   2.836   4.528 -0.1019  0.1480  0.1686
    2ILE     BB  355   8.381   3.093   4.032  0.0366 -0.4082  0.2165
    2ILE    SC1  356   8.613   2.975   3.864 -0.1920 -0.1635 -0.3023
    3TYR     BB  357   8.577   3.327   4.181  0.1090 -0.2326 -0.2128
    3TYR    SC1  358   8.871   3.345   4.148 -0.0030 -0.0298  0.0084
    3TYR    SC2  359   9.114   3.247   4.083  0.0642  0.1765 -0.0625
    3TYR    SC3  360   9.094   3.490   4.201 -0.1239  0.3430 -0.4184
    1TYR     BB  361  -0.169   2.484   3.479 -0.1383  0.1424  0.2537
    1TYR    SC1  362  -0.053   2.193   3.432  0.0371  0.1946  0.0927
    1TYR    SC2  363   0.071   1.953   3.411 -0.4505 -0.0757  0.1235
    1TYR    SC3  364   0.032   2.065   3.654 -0.1570  0.0800  0.1040
    2ILE     BB  365  -0.269   2.648   3.227 -0.0140 -0.0135  0.3425
    2ILE    SC1  366  -0.380   2.505   2.975 -0.1653  0.0016  0.3993
    3TYR     BB  367  -0.084   2.904   3.078 -0.1740  0.3816 -0.0716
    3TYR    SC1  368  -0.060   2.836   2.794  0.2111 -0.0246 -0.0864
    3TYR    SC2  369  -0.043   2.635   2.614  0.1431 -0.0148 -0.1041
    3TYR    SC3  370  -0.254   2.804   2.609 -0.1176 -0.3053  0.2852
    1TYR     BB  371   0.984   2.930   5.122  0.1550  0.0243 -0.1281
    1TYR    SC1  372   0.886   2.917   4.816 -0.0477 -0.1479 -0.2853
    1TYR    SC2  373   0.775   2.794   4.602 -0.3913 -0.0388 -0.1769
    1TYR    SC3  374   0.804   3.063   4.604  0.3013 -0.0864 -0.3874
    2ILE     BB  375   0.976   2.629   5.262 -0.1663 -0.0341 -0.0871
    2ILE    SC1  376   1.021   2.424   5.035  0.1358  0.0208 -0.0818
    3TYR     BB  377   0.829   2.589   5.540  0.2247 -0.2697 -0.1528
    3TYR    SC1  378   1.001   2.616   5.803 -0.0242 -0.0016  0.0195
    3TYR    SC2  379   0.978   2.459   6.021  0.2349 -0.0838 -0.0080
    3TYR    SC3  380   1.122   2.688   6.033  0.2980 -0.1177 -0.1064
    1TYR     BB  381   2.787   2.412   3.643  0.2564 -0.2342  0.2910
    1TYR    SC1  382   2.820   2.569   3.910 -0.2372  0.0227 -0.1838
    1TYR    SC2  383   2.832   2.753   4.107  0.0139 -0.0256 -0.1489
    1TYR    SC3  384   2.672   2.536   4.134 -0.1590  0.1022 -0.1195
    2ILE     BB  385   2.527   2.378   3.469  0.1107  0.0859  0.2769
    2ILE    SC1  386   2.515   2.082   3.379  0.1917  0.1254  0.1330
    3TYR     BB  387   2.368   2.551   3.373 -0.2286  0.2819  0.1949
    3TYR    SC1  388   2.143   2.471   3.194  0.0696  0.0416  0.0485
    3TYR    SC2  389   1.892   2.379   3.155  0.1269 -0.2949  0.3989
    3TYR    SC3  390   2.102   2.252   3.044  0.1431  0.1699 -0.1652
    1TYR     BB  391   2.500   4.262   4.859  0.3435 -0.1818 -0.2248
    1TYR    SC1  392   2.571   4.491   5.012 -0.2894  0.2778  0.1890
    1TYR    SC2  393   2.595   4.757   5.053  0.3049  0.3556 -0.4385
    1TYR    SC3  394   2.814   4.598   5.059 -0.0315 -0.1323 -0.1157
    2ILE     BB  395   2.279   4.123   5.040  0.1248  0.1458 -0.2656
    2ILE    SC1  396   2.069   3.894   5.035 -0.1898  0.3948  0.3200
    3TYR     BB  397   2.359   4.157   5.318 -0.1159 -0.2047 -0.0465
    3TYR    SC1  398   2.383   4.424   5.419 -0.2022  0.2422 -0.1655
    3TYR    SC2  399   2.494   4.665   5.469 -0.2743  0.1938  0.2802
    3TYR    SC3  400   2.248   4.608   5.564 -0.2278 -0.0802  0.2448
    1TYR     BB  401   3.463   3.170   3.837 -0.1227  0.0139 -0.0325
    1TYR    SC1  402   3.579   2.878   3.772  0.0917  0.0106 -0.1842
    1TYR    SC2  403   3.710   2.642   3.761  0.0971  0.0136 -0.1841
    1TYR    SC3  404   3.659   2.779   3.534  0.1171  0.0252 -0.1817
    2ILE     BB  405   3.468   3.261   3.463 -0.2369  0.0688  0.0466
    2ILE    SC1  406   3.725   3.431   3.500 -0.1005 -0.0466 -0.3175
    3TYR     BB  407   3.269   3.103   3.265 -0.2838 -0.1150 -0.1401
    3TYR    SC1  408   3.326   2.815   3.153  0.0985  0.0556  0.1112
    3TYR    SC2  409   3.160   2.621   3.067  0.0985  0.2762 -0.4427
    3TYR    SC3  410   3.414   2.561   3.135 -0.0721  0.0011  0.0119
    1TYR     BB  411   1.877   3.444   2.999 -0.0272  0.1308  0.1191
    1TYR    SC1  412   1.662   3.657   3.135  0.0995 -0.3736  0.5334
    1TYR    SC2  413   1.608   3.900   3.239 -0.0766 -0.1110 -0.1099
    1TYR    SC3  414   1.420   3.707   3.245 -0.0277 -0.1552  0.1771
    2ILE     BB  415   1.829   3.655   2.681 -0.0026 -0.0571  0.1148
    2ILE    SC1  416   1.720   3.557   2.407  0.0942  0.2642 -0.0455
    3TYR     BB  417   1.919   3.990   2.568 -0.4532 -0.0774 -0.1887
    3TYR    SC1  418   1.865   4.302   2.574  0.2743 -0.1568  0.0123
    3TYR    SC2  419   1.930   4.564   2.590  0.3947 -0.1750 -0.1525
    3TYR    SC3  420   1.678   4.484   2.643  0.4405 -0.0735  0.2646
    1TYR     BB  421   1.166   4.280   4.907  0.0200  0.0333 -0.1473
    1TYR    SC1  422   0.898   4.203   4.842  0.1387 -0.1358  0.1817
    1TYR    SC2  423   0.845   4.076   4.610  0.0906  0.2230 -0.0153
    1TYR    SC3  424   0.655   4.094   4.801  0.2375 -0.3743  0.2160
    2ILE     BB  425   1.164   4.488   5.132 -0.3051  0.0454 -0.0403
    2ILE    SC1  426   1.235   4.530   5.431 -0.4136  0.1434 -0.0275
    3TYR     BB  427   0.994   4.762   5.050  0.1589 -0.1923 -0.2476
    3TYR    SC1  428   0.716   4.665   4.939  0.0465 -0.0734 -0.2875
    3TYR    SC2  429   0.451   4.708   4.957  0.0746 -0.0120  0.0825
    3TYR    SC3  430   0.546   4.457   4.966  0.0409 -0.0217  0.1863
    1TYR     BB  431   1.749   4.492   5.566 -0.2875 -0.1330 -0.0685
    1TYR    SC1  432   1.683   4.785   5.445 -0.4747 -0.2650  0.0683
    1TYR    SC2  433   1.559   4.884   5.226 -0.5407 -0.0495  0.1998
    1TYR    SC3  434   1.602   5.042   5.441 -0.0887 -0.1324  0.1829
    2ILE     BB  435   1.868   4.269   5.341  0.1468 -0.2061  0.0777
    2ILE    SC1  436   1.644   4.335   5.137  0.0854 -0.2050  0.1451
    3TYR     BB  437   1.969   4.006   5.540  0.1615 -0.0757  0.3630
    3TYR    SC1  438   1.720   3.982   5.722  0.0205  0.3421  0.1476
    3TYR    SC2  439   1.544   4.152   5.835 -0.0109  0.2570  0.2278
    3TYR    SC3  440   1.552   3.894   5.914 -0.0775  0.1797 -0.0082
    1TYR     BB  441   2.649   4.993   4.613  0.3123  0.2409  0.0247
    1TYR    SC1  442   2.859   4.775   4.634  0.0560  0.1573 -0.0451
    1TYR    SC2  443   2.877   4.506   4.637 -0.3196  0.1258  0.2180
    1TYR    SC3  444   3.101   4.656   4.644 -0.1076 -0.1763  0.1697
    2ILE     BB  445   2.238   4.861   4.574 -0.0453 -0.0978  0.0399
    2ILE    SC1  446   2.396   4.625   4.451 -0.2217 -0.2004  0.0060
    3TYR     BB  447   1.926   4.836   4.484 -0.3332  0.0133  0.1214
    3TYR    SC1  448   1.798   5.075   4.657 -0.1744 -0.0669 -0.0782
    3TYR    SC2  449   1.668   5.312   4.665  0.3180  0.2163  0.0447
    3TYR    SC3  450   1.726   5.182   4.895  0.1706  0.0405 -0.0149
    1TYR     BB  451   4.183   4.141   3.251 -0.2178 -0.4336 -0.0109
    1TYR    SC1  452   4.239   3.867   3.357  0.4103  0.3184 -0.1888
    1TYR    SC2  453   4.407   3.656   3.382  0.0252 -0.0076 -0.2279
    1TYR    SC3  454   4.162   3.648   3.496 -0.0193  0.4030 -0.2764
    2ILE     BB  455   3.978   4.015   2.959 -0.0678 -0.2410 -0.1328
    2ILE    SC1  456   3.758   3.913   3.153 -0.0656 -0.0373 -0.0216
    3TYR     BB  457   3.888   4.195   2.759 -0.1642 -0.0936 -0.1667
    3TYR    SC1  458   4.138   4.346   2.651 -0.0953  0.1142 -0.0527
    3TYR    SC2  459   4.340   4.504   2.566 -0.1498  0.2434  0.0531
    3TYR    SC3  460   4.254   4.299   2.412  0.2081  0.0478  0.1016
    1TYR     BB  461   1.295   4.412   3.901 -0.3850  0.0741  0.1095
    1TYR    SC1  462   1.285   4.213   3.630  0.0620  0.1202  0.0756
    1TYR    SC2  463   1.226   3.985   3.497  0.4167 -0.1156  0.3029
    1TYR    SC3  464   1.284   4.210   3.360  0.0719 -0.1567  0.0750
    2ILE     BB  465   1.229   4.680   4.086  0.1367 -0.1510 -0.0633
    2ILE    SC1  466   0.940   4.791   4.086  0.1449 -0.1273  0.0704
    3TYR     BB  467   1.513   4.887   4.184  0.3183 -0.2223  0.0045
    3TYR    SC1  468   1.333   5.135   4.257 -0.1977 -0.1727 -0.2643
    3TYR    SC2  469   1.291   5.373   4.378 -0.0609 -0.2215 -0.1172
    3TYR    SC3  470   1.083   5.206   4.333 -0.1035 -0.2434  0.1394
    1TYR     BB  471   2.546   2.069   3.940  0.1627  0.0409 -0.3052
    1TYR    SC1  472   2.342   2.306   3.933 -0.1601 -0.0635 -0.1621
    1TYR    SC2  473   2.211   2.433   4.132  0.1862  0.1543 -0.0641
    1TYR    SC3  474   2.247   2.555   3.893 -0.3338 -0.1514 -0.3211
    2ILE     BB  475   2.372   1.884   4.161 -0.2032 -0.1903  0.0854
    2ILE    SC1  476   2.482   1.812   4.441  0.1481 -0.2734 -0.0680
    3TYR     BB  477   2.033   1.985   4.229  0.0747  0.0007 -0.0641
    3TYR    SC1  478   1.961   1.965   4.517 -0.0378 -0.2523 -0.1874
    3TYR    SC2  479   2.084   1.841   4.723 -0.2738 -0.1671  0.0107
    3TYR    SC3  480   1.816   1.872   4.724 -0.2477  0.1230 -0.1520
    1TYR     BB  481   2.184   4.403   3.045  0.4310 -0.0830 -0.1306
    1TYR    SC1  482   2.094   4.558   3.305  0.0289  0.3031 -0.0526
    1TYR    SC2  483   2.067   4.764   3.477  0.1372  0.1990  0.0919
    1TYR    SC3  484   2.013   4.512   3.558  0.6000  0.0958  0.1111
    2ILE     BB  485   2.504   4.479   3.013  0.2765 -0.0062  0.1242
    2ILE    SC1  486   2.660   4.256   2.865  0.0467 -0.0075 -0.1254
    3TYR     BB  487   2.538   4.759   3.170 -0.2575  0.1089  0.1570
    3TYR    SC1  488   2.689   4.940   3.018  0.1531 -0.4078 -0.3080
    3TYR    SC2  489   2.802   5.048   2.798  0.1584  0.3677  0.0316
    3TYR    SC3  490   2.918   5.081   3.039 -0.2626  0.2675  0.2609
    1TYR     BB  491   5.440   3.751   4.742  0.0567 -0.0065 -0.3890
    1TYR    SC1  492   5.569   4.031   4.876 -0.1186  0.0868 -0.0178
    1TYR    SC2  493   5.534   4.219   5.067 -0.1747  0.0871 -0.0285
    1TYR    SC3  494   5.777   4.185   4.956 -0.1223  0.0315  0.1006
    2ILE     BB  495   5.134   3.712   4.829 -0.0327 -0.0867 -0.1826
    2ILE    SC1  496   5.129   3.556   5.097 -0.0494 -0.1785 -0.2361
    3TYR     BB  497   4.882   3.865   4.748 -0.4467  0.0304  0.2423
    3TYR    SC1  498   4.910   4.117   4.945  0.1890  0.1537  0.0240
    3TYR    SC2  499   5.060   4.282   5.098  0.1762 -0.1474  0.3788
    3TYR    SC3  500   4.828   4.185   5.193 -0.1516  0.1340 -0.0778
    1TYR     BB  501  -0.072   3.856   4.864  0.1830  0.1990 -0.0774
    1TYR    SC1  502  -0.041   3.853   4.544 -0.2552 -0.3034  0.1888
    1TYR    SC2  503  -0.148   4.014   4.355  0.1399 -0.1916  0.0469
    1TYR    SC3  504  -0.051   3.772   4.287  0.2077 -0.1863  0.1231
    2ILE     BB  505   0.151   4.144   4.884 -0.3085  0.1581  0.1828
    2ILE    SC1  506   0.098   4.345   5.114  0.0986  0.1804  0.2670
    3TYR     BB  507   0.198   4.299   4.619  0.0937  0.1427  0.0258
    3TYR    SC1  508   0.467   4.486   4.540 -0.0580 -0.4315 -0.2288
    3TYR    SC2  509   0.737   4.483   4.544 -0.0479 -0.0942 -0.1469
    3TYR    SC3  510   0.608   4.693   4.436 -0.2703  0.0575  0.3718
    1TYR     BB  511   8.540   2.461   4.197  0.2290  0.1036  0.2726
    1TYR    SC1  512   8.604   2.135   4.106 -0.0133 -0.1777 -0.1011
    1TYR    SC2  513   8.708   1.885   4.120 -0.1538 -0.2252  0.2050
    1TYR    SC3  514   8.490   1.950   4.266 -0.0250  0.1234  0.2568
    2ILE     BB  515   8.232   2.405   4.409  0.2477  0.5160  0.1119
    2ILE    SC1  516   8.086   2.259   4.178  0.3049  0.1303  0.3099
    3TYR     BB  517   8.065   2.424   4.700  0.0917  0.3681  0.1951
    3TYR    SC1  518   8.150   2.584   4.919 -0.2205  0.0882  0.0122
    3TYR    SC2  519   8.086   2.832   5.007  0.0197  0.0588  0.2871
    3TYR    SC3  520   8.126   2.630   5.184 -0.2805 -0.2108  0.0630
    1TYR     BB  521   5.689   3.766   3.811  0.1220 -0.2114 -0.2478
    1TYR    SC1  522   5.865   4.043   3.859 -0.3257  0.0382 -0.3186
    1TYR    SC2  523   5.974   4.290   3.877  0.0948 -0.1416 -0.2616
    1TYR    SC3  524   6.128   4.070   3.911 -0.3315 -0.4170  0.0331
    2ILE     BB  525   5.555   3.714   4.134  0.1542 -0.2620  0.1128
    2ILE    SC1  526   5.706   3.865   4.358  0.2436  0.2124 -0.2481
    3TYR     BB  527   5.241   3.723   4.298  0.0917 -0.2123 -0.0289
    3TYR    SC1  528   5.213   3.415   4.398 -0.0156 -0.1239 -0.3144
    3TYR    SC2  529   5.124   3.269   4.607  0.0989  0.2378 -0.0020
    3TYR    SC3  530   5.287   3.156   4.425 -0.0552 -0.1029  0.0617
    1TYR     BB  531  -0.913   4.620   4.004  0.1785  0.3633  0.0834
    1TYR    SC1  532  -1.085   4.584   3.755 -0.0472 -0.2691 -0.1169
    1TYR    SC2  533  -1.194   4.532   3.513 -0.0854 -0.1016 -0.1376
    1TYR    SC3  534  -1.346   4.636   3.710  0.0444  0.1836 -0.1823
    2ILE     BB  535  -1.028   4.377   4.240 -0.1836  0.2218 -0.0794
    2ILE    SC1  536  -1.335   4.405   4.205 -0.2460 -0.1180  0.1383
    3TYR     BB  537  -0.947   4.563   4.515  0.2610  0.0447  0.1255
    3TYR    SC1  538  -1.201   4.766   4.564 -0.0191  0.1138 -0.0356
    3TYR    SC2  539  -1.470   4.767   4.536 -0.0171 -0.0020 -0.0666
    3TYR    SC3  540  -1.340   4.994   4.605 -0.1296  0.0380  0.0164
    1TYR     BB  541   2.508   3.688   3.217  0.1086 -0.1499 -0.1024
    1TYR    SC1  542   2.674   3.712   2.975 -0.0555 -0.0524 -0.0100
    1TYR    SC2  543   2.882   3.801   2.829  0.0814 -0.0644  0.1730
    1TYR    SC3  544   2.817   3.540   2.825  0.0042 -0.0446  0.0376
    2ILE     BB  545   2.224   3.767   3.213  0.3234 -0.1961 -0.0557
    2ILE    SC1  546   2.143   3.931   2.963 -0.1835 -0.1397  0.1325
    3TYR     BB  547   2.056   3.787   3.471 -0.2389  0.1289 -0.0094
    3TYR    SC1  548   1.945   4.018   3.595 -0.3765 -0.1880 -0.1624
    3TYR    SC2  549   1.719   4.167   3.590 -0.1331  0.2055 -0.0615
    3TYR    SC3  550   1.869   4.156   3.815  0.0462  0.0988 -0.1830
    1TYR     BB  551   7.062   3.100   4.482 -0.0181  0.3103  0.0832
    1TYR    SC1  552   7.134   3.344   4.316  0.3142  0.2282  0.1240
    1TYR    SC2  553   6.958   3.549   4.317 -0.0187 -0.0439 -0.0341
    1TYR    SC3  554   7.212   3.589   4.233 -0.0202  0.3384  0.1184
    2ILE     BB  555   7.243   2.811   4.574  0.0602 -0.0706 -0.2538
    2ILE    SC1  556   7.417   2.927   4.802 -0.0094  0.1062 -0.2894
    3TYR     BB  557   7.334   2.525   4.510  0.1378  0.0771  0.2029
    3TYR    SC1  558   7.535   2.564   4.211  0.1595  0.0062  0.0157
    3TYR    SC2  559   7.761   2.629   4.079 -0.0086  0.0494 -0.2597
    3TYR    SC3  560   7.641   2.392   4.032 -0.1304  0.1122 -0.2700
    1TYR     BB  561   0.849   4.266   4.123  0.0245  0.0315 -0.2070
    1TYR    SC1  562   0.605   4.086   4.251  0.1769 -0.1689 -0.4275
    1TYR    SC2  563   0.502   3.910   4.429  0.0600  0.1908 -0.1233
    1TYR    SC3  564   0.356   3.986   4.216  0.0990 -0.0464 -0.2400
    2ILE     BB  565   1.146   3.997   4.100 -0.0091 -0.0063 -0.0474
    2ILE    SC1  566   1.062   3.769   4.292 -0.0248  0.1828  0.1755
    3TYR     BB  567   1.459   3.984   4.114 -0.0148 -0.2833  0.0249
    3TYR    SC1  568   1.562   3.872   4.376 -0.1571 -0.0501  0.2042
    3TYR    SC2  569   1.641   3.938   4.625 -0.0697 -0.1422  0.2018
    3TYR    SC3  570   1.705   3.695   4.523 -0.0420 -0.0775  0.0630
    1TYR     BB  571   0.879   3.140   2.691 -0.1187  0.0013  0.0882
    1TYR    SC1  572   0.991   2.885   2.630  0.0221  0.3446  0.3399
    1TYR    SC2  573   1.211   2.741   2.569 -0.4081 -0.0805 -0.3854
    1TYR    SC3  574   1.036   2.650   2.754 -0.0023  0.2717  0.2129
    2ILE     BB  575   0.651   3.274   2.605 -0.1266  0.2438 -0.1697
    2ILE    SC1  576   0.351   3.295   2.677 -0.1110 -0.0431  0.0004
    3TYR     BB  577   0.733   3.346   2.274 -0.0083 -0.1518 -0.1100
    3TYR    SC1  578   1.010   3.212   2.235 -0.1822 -0.1668 -0.2838
    3TYR    SC2  579   1.154   3.003   2.141 -0.0292 -0.1417 -0.1129
    3TYR    SC3  580   1.278   3.207   2.266 -0.1883  0.0089 -0.1954
    1TYR     BB  581   0.411   3.729   4.862  0.1693  0.1908 -0.1341
    1TYR    SC1  582   0.318   3.733   5.137  0.1433 -0.1292 -0.1412
    1TYR    SC2  583   0.186   3.813   5.358  0.0494 -0.0112 -0.2384
    1TYR    SC3  584   0.390   3.637   5.379 -0.0439 -0.1024 -0.0732
    2ILE     BB  585   0.642   3.430   4.882  0.2127 -0.0745 -0.0763
    2ILE    SC1  586   0.836   3.581   4.692  0.2693 -0.0744 -0.0190
    3TYR     BB  587   0.652   3.318   5.050 -0.3237 -0.1625  0.1438
    3TYR    SC1  588   0.625   3.220   5.313 -0.2348  0.0797 -0.1990
    3TYR    SC2  589   0.532   2.996   5.430  0.0016 -0.0378 -0.2281
    3TYR    SC3  590   0.507   3.234   5.556  0.4455 -0.1879  0.1822
    1TYR     BB  591   3.406   4.220   2.164  0.5269  0.1625  0.5925
    1TYR    SC1  592   3.148   4.253   2.284  0.0619 -0.0692  0.0869
    1TYR    SC2  593   3.008   4.129   2.479 -0.0435  0.0932  0.1169
    1TYR    SC3  594   2.880   4.282   2.297  0.0863  0.1789  0.0960
    2ILE     BB  595   3.661   4.260   2.306 -0.0194 -0.1173 -0.0422
    2ILE    SC1  596   3.828   3.998   2.306 -0.0448 -0.1345 -0.1489
    3TYR     BB  597   3.839   4.521   2.274 -0.0112 -0.1838 -0.2587
    3TYR    SC1  598   3.872   4.661   2.575  0.4099 -0.0089  0.3195
    3TYR    SC2  599   3.796   4.819   2.781  0.4358  0.3013  0.0996
    3TYR    SC3  600   4.036   4.858   2.663  0.4277  0.1170  0.0190
    1TYR     BB  601   3.380   3.753   2.292  0.2144  0.0328  0.0516
    1TYR    SC1  602   3.521   3.758   2.046 -0.0420 -0.0118  0.1086
    1TYR    SC2  603   3.729   3.652   1.911 -0.1627 -0.2824  0.1271
    1TYR    SC3  604   3.516   3.751   1.777 -0.0258  0.0003  0.1080
    2ILE     BB  605   3.501   3.465   2.483  0.0188 -0.1331  0.0217
    2ILE    SC1  606   3.743   3.611   2.610  0.1488  0.0314 -0.3936
    3TYR     BB  607   3.558   3.150   2.277  0.0876 -0.3671 -0.1650
    3TYR    SC1  608   3.489   2.986   2.537  0.0790 -0.2147  0.0391
    3TYR    SC2  609   3.405   2.812   2.725  0.1283 -0.2951 -0.0127
    3TYR    SC3  610   3.469   3.065   2.795  0.3831 -0.3920  0.1231
    1TYR     BB  611   3.200   4.202   4.293 -0.0084 -0.2547 -0.0069
    1TYR    SC1  612   3.432   4.332   4.416 -0.0129 -0.0342  0.1468
    1TYR    SC2  613   3.584   4.413   4.623 -0.0846  0.0141  0.1810
    1TYR    SC3  614   3.673   4.444   4.370 -0.1257  0.2326  0.1917
    2ILE     BB  615   3.044   4.248   4.016  0.0966 -0.4424  0.2757
    2ILE    SC1  616   2.993   4.023   3.809 -0.0594 -0.0289 -0.1581
    3TYR     BB  617   2.771   4.416   4.118  0.0630 -0.0926  0.2841
    3TYR    SC1  618   2.846   4.670   4.143 -0.0352  0.3146 -0.0952
    3TYR    SC2  619   3.007   4.868   4.233 -0.1278  0.2527  0.2210
    3TYR    SC3  620   2.901   4.882   3.985  0.1710  0.4091  0.0961
    1TYR     BB  621   2.119   4.877   2.940 -0.0815  0.0849 -0.1449
    1TYR    SC1  622   2.242   5.147   3.095 -0.0380 -0.0302 -0.3163
    1TYR    SC2  623   2.414   5.349   3.145  0.2007 -0.2030 -0.4167
    1TYR    SC3  624   2.185   5.328   3.287  0.2609  0.0297 -0.2786
    2ILE     BB  625   2.318   4.867   2.639  0.1734  0.1192 -0.5737
    2ILE    SC1  626   2.340   5.176   2.615  0.0719  0.2008  0.1113
    3TYR     BB  627   2.496   4.655   2.561 -0.0847  0.5195  0.0766
    3TYR    SC1  628   2.760   4.704   2.471 -0.1367 -0.0874  0.3478
    3TYR    SC2  629   3.022   4.688   2.537 -0.1124  0.2540  0.3601
    3TYR    SC3  630   2.945   4.836   2.325 -0.3001  0.1793  0.3732
    1TYR     BB  631   3.577   4.310   3.168  0.1609 -0.1883  0.1405
    1TYR    SC1  632   3.830   4.510   3.174  0.1047  0.3522  0.1041
    1TYR    SC2  633   3.950   4.749   3.216  0.1714  0.3191  0.1044
    1TYR    SC3  634   4.066   4.567   3.054  0.2478  0.1898  0.2992
    2ILE     BB  635   3.417   4.273   2.930 -0.1402  0.2116  0.1388
    2ILE    SC1  636   3.442   4.496   2.716  0.1261  0.1769  0.1297
    3TYR     BB  637   3.408   3.983   2.728  0.0372  0.3312 -0.0130
    3TYR    SC1  638   3.364   3.731   2.880 -0.1637  0.0044 -0.1252
    3TYR    SC2  639   3.230   3.498   2.900 -0.0470 -0.0444  0.1390
    3TYR    SC3  640   3.479   3.519   3.001 -0.1747  0.2837  0.4126
    1TYR     BB  641   4.221   3.810   3.975  0.2608  0.1071 -0.1066
    1TYR    SC1  642   4.281   3.899   4.255 -0.2283 -0.0327  0.3373
    1TYR    SC2  643   4.375   3.892   4.508 -0.4267 -0.0215  0.4136
    1TYR    SC3  644   4.290   4.126   4.402  0.4707  0.1772  0.0214
    2ILE     BB  645   4.019   4.028   3.777 -0.2038  0.2881  0.0373
    2ILE    SC1  646   3.786   3.883   3.633  0.0775  0.0742 -0.2202
    3TYR     BB  647   3.963   4.264   3.931  0.4733 -0.3366  0.0447
    3TYR    SC1  648   3.875   4.511   3.782  0.1998 -0.0628 -0.1871
    3TYR    SC2  649   3.969   4.745   3.683 -0.2113  0.3862  0.3853
    3TYR    SC3  650   3.731   4.648   3.600  0.0328  0.0510  0.0245
    1TYR     BB  651   7.506   3.418   4.650  0.2618  0.1220 -0.1397
    1TYR    SC1  652   7.693   3.345   4.910 -0.0245 -0.1308  0.3743
    1TYR    SC2  653   7.866   3.265   5.100  0.3451  0.4975  0.3386
    1TYR    SC3  654   7.652   3.416   5.167 -0.1110 -0.1091  0.3552
    2ILE     BB  655   7.201   3.514   4.800 -0.3233 -0.0896 -0.0192
    2ILE    SC1  656   7.148   3.310   5.027 -0.0680 -0.0448  0.0846
    3TYR     BB  657   7.118   3.782   4.741  0.0918 -0.1398  0.0329
    3TYR    SC1  658   6.817   3.861   4.741 -0.0429 -0.3732 -0.0775
    3TYR    SC2  659   6.649   4.067   4.693  0.1855 -0.0979  0.2364
    3TYR    SC3  660   6.567   3.858   4.842 -0.1635 -0.4267 -0.3656
    1TYR     BB  661   1.160   4.295   2.467 -0.0297  0.0671  0.1489
    1TYR    SC1  662   1.028   4.576   2.430 -0.0231 -0.0194 -0.3063
    1TYR    SC2  663   0.968   4.814   2.319 -0.1263  0.1146  0.0199
    1TYR    SC3  664   0.902   4.764   2.576 -0.1296 -0.2791 -0.0483
    2ILE     BB  665   1.360   4.291   2.283  0.2128 -0.1077 -0.4331
    2ILE    SC1  666   1.461   4.558   2.166 -0.1278  0.0903 -0.2928
    3TYR     BB  667   1.524   3.970   2.189 -0.2751 -0.0312 -0.2580
    3TYR    SC1  668   1.773   3.933   2.052  0.1862 -0.0380 -0.1519
    3TYR    SC2  669   2.013   3.827   2.114  0.1063 -0.2470 -0.1871
    3TYR    SC3  670   1.998   4.044   1.953  0.2732 -0.1831 -0.1194
    1TYR     BB  671   4.991   4.227   3.774 -0.2168 -0.1118 -0.1404
    1TYR    SC1  672   5.021   4.518   3.927  0.2663  0.2944  0.0936
    1TYR    SC2  673   5.005   4.785   3.968 -0.0739  0.3042 -0.0549
    1TYR    SC3  674   4.835   4.617   4.095 -0.1835  0.2060 -0.3219
    2ILE     BB  675   5.183   4.063   3.948 -0.1632  0.2053  0.0603
    2ILE    SC1  676   5.237   3.806   3.784  0.2636  0.2223  0.1598
    3TYR     BB  677   5.436   4.176   4.045  0.3418 -0.0905 -0.0650
    3TYR    SC1  678   5.501   4.448   3.954 -0.2852  0.1594 -0.0006
    3TYR    SC2  679   5.650   4.571   3.766  0.2137  0.1954  0.3917
    3TYR    SC3  680   5.453   4.705   3.891  0.0426  0.2464  0.0790
    1TYR     BB  681   2.037   2.943   3.651 -0.0194 -0.1386  0.0675
    1TYR    SC1  682   2.179   3.070   3.478  0.0452 -0.1098 -0.0697
    1TYR    SC2  683   2.215   3.331   3.417  0.4475 -0.1288  0.0479
    1TYR    SC3  684   2.362   3.141   3.293  0.1567 -0.3063 -0.0392
    2ILE     BB  685   1.689   3.076   3.603  0.1561 -0.0879 -0.0356
    2ILE    SC1  686   1.734   3.353   3.473 -0.1444 -0.0902 -0.1539
    3TYR     BB  687   1.454   2.894   3.690  0.0533  0.0515  0.0617
    3TYR    SC1  688   1.318   2.604   3.715  0.2747  0.1281  0.0077
    3TYR    SC2  689   1.275   2.432   3.919  0.3930 -0.0471 -0.1115
    3TYR    SC3  690   1.140   2.404   3.686 -0.0525  0.3965  0.0668
    1TYR     BB  691   1.301   3.507   2.723 -0.0223 -0.0629 -0.1419
    1TYR    SC1  692   1.131   3.640   2.503  0.1045 -0.1012 -0.2522
    1TYR    SC2  693   0.961   3.851   2.509  0.1049 -0.1042 -0.0157
    1TYR    SC3  694   1.084   3.782   2.279 -0.0034  0.0667 -0.1267
    2ILE     BB  695   1.344   3.297   2.826 -0.1550 -0.1550 -0.1254
    2ILE    SC1  696   1.494   3.078   2.665 -0.1157 -0.2058 -0.0209
    3TYR     BB  697   1.442   3.201   3.179  0.2579 -0.0228 -0.1238
    3TYR    SC1  698   1.251   3.008   3.220  0.1078 -0.2629 -0.0741
    3TYR    SC2  699   1.085   2.838   3.349 -0.2109  0.0116 -0.1028
    3TYR    SC3  700   1.015   2.938   3.108  0.1436 -0.0966 -0.2611
    1TYR     BB  701   7.026   3.764   1.653 -0.0421 -0.0278 -0.2659
    1TYR    SC1  702   6.756   3.890   1.670  0.0532  0.5418  0.1442
    1TYR    SC2  703   6.544   3.839   1.829 -0.0331 -0.3376 -0.1781
    1TYR    SC3  704   6.549   4.062   1.676 -0.3561  0.0729  0.3647
    2ILE     BB  705   7.289   3.903   1.824 -0.4570  0.2276 -0.4658
    2ILE    SC1  706   7.182   4.193   1.849 -0.2336  0.2692  0.3417
    3TYR     BB  707   7.360   3.834   2.126 -0.0711 -0.2211 -0.0620
    3TYR    SC1  708   7.284   3.839   2.409  0.1503  0.5489 -0.1307
    3TYR    SC2  709   7.349   3.740   2.652  0.0094  0.2409 -0.2107
    3TYR    SC3  710   7.169   3.940   2.630  0.0892  0.3309 -0.0582
    1TYR     BB  711   2.129   2.564   4.623  0.2795  0.1398  0.0985
    1TYR    SC1  712   2.304   2.330   4.617  0.0407  0.3480  0.4897
    1TYR    SC2  713   2.410   2.156   4.796 -0.0501 -0.4794 -0.1753
    1TYR    SC3  714   2.557   2.239   4.585 -0.1194  0.0383 -0.0405
    2ILE     BB  715   2.286   2.832   4.472  0.0698  0.0683 -0.1086
    2ILE    SC1  716   2.570   2.766   4.578 -0.0108 -0.2680 -0.0889
    3TYR     BB  717   2.301   3.023   4.181  0.1681 -0.3130  0.2038
    3TYR    SC1  718   2.479   2.977   3.923 -0.1911  0.1176 -0.2145
    3TYR    SC2  719   2.524   2.866   3.681 -0.4971  0.1725 -0.3017
    3TYR    SC3  720   2.522   3.135   3.708 -0.0666  0.1695 -0.1524
    1TYR     BB  721   6.098   4.159   3.410 -0.2610 -0.0836 -0.1850
    1TYR    SC1  722   5.930   3.929   3.336 -0.0936  0.1898 -0.0825
    1TYR    SC2  723   5.903   3.666   3.283  0.3547  0.0735  0.2015
    1TYR    SC3  724   5.691   3.831   3.255  0.1363 -0.2565 -0.2640
    2ILE     BB  725   5.927   4.451   3.371  0.1225 -0.0369 -0.2431
    2ILE    SC1  726   5.804   4.364   3.100  0.0341  0.0290 -0.2251
    3TYR     BB  727   5.949   4.738   3.405  0.0564 -0.1074 -0.0074
    3TYR    SC1  728   5.976   4.901   3.630 -0.1121 -0.2141  0.1024
    3TYR    SC2  729   5.852   5.042   3.824  0.1226 -0.3846  0.3848
    3TYR    SC3  730   6.085   5.132   3.721 -0.0009 -0.2951  0.1770
    1TYR     BB  731   7.126   4.659   2.622 -0.0061  0.0169 -0.4856
    1TYR    SC1  732   7.218   4.405   2.514 -0.2587 -0.1397 -0.0597
    1TYR    SC2  733   7.327   4.354   2.273 -0.2230 -0.0598 -0.0610
    1TYR    SC3  734   7.449   4.267   2.497 -0.0051  0.2642 -0.0466
    2ILE     BB  735   6.806   4.598   2.750  0.1961 -0.1818 -0.1067
    2ILE    SC1  736   6.853   4.297   2.808 -0.0346 -0.1609  0.2284
    3TYR     BB  737   6.623   4.674   2.522 -0.3408  0.0788  0.2561
    3TYR    SC1  738   6.718   4.548   2.256 -0.2055 -0.3831 -0.0629
    3TYR    SC2  739   6.778   4.431   2.020  0.1451 -0.1996 -0.0725
    3TYR    SC3  740   6.958   4.594   2.140 -0.1536 -0.0314  0.1639
    1TYR     BB  741   0.598   2.600   3.043  0.2156 -0.1791  0.1253
    1TYR    SC1  742   0.347   2.397   3.008 -0.2550 -0.1009  0.3074
    1TYR    SC2  743   0.084   2.341   2.975 -0.1787 -0.2583 -0.1178
    1TYR    SC3  744   0.271   2.188   2.855  0.0935  0.1388 -0.2285
    2ILE     BB  745   0.474   2.860   2.891  0.0732 -0.0520  0.0651
    2ILE    SC1  746   0.398   3.082   3.095 -0.3252  0.1295 -0.2604
    3TYR     BB  747   0.421   2.817   2.615 -0.0072 -0.0696 -0.0425
    3TYR    SC1  748   0.597   2.826   2.354 -0.0943 -0.0001 -0.0508
    3TYR    SC2  749   0.696   2.834   2.102  0.1034  0.3876  0.0295
    3TYR    SC3  750   0.823   2.692   2.293 -0.1336 -0.0379 -0.1143
    1TYR     BB  751   1.563   4.622   4.719 -0.1712 -0.0668 -0.2057
    1TYR    SC1  752   1.365   4.835   4.693  0.1793  0.2929  0.2025
    1TYR    SC2  753   1.129   4.845   4.563  0.1797 -0.2732  0.1251
    1TYR    SC3  754   1.204   5.050   4.723 -0.3381 -0.0609  0.1234
    2ILE     BB  755   1.533   4.467   4.426  0.0056 -0.1405  0.1589
    2ILE    SC1  756   1.252   4.336   4.437 -0.0074 -0.1107  0.1847
    3TYR     BB  757   1.694   4.387   4.233 -0.3085  0.2360 -0.3755
    3TYR    SC1  758   1.897   4.527   4.071 -0.0105 -0.0595 -0.0271
    3TYR    SC2  759   2.151   4.570   3.989 -0.1529  0.3805 -0.2781
    3TYR    SC3  760   1.976   4.775   4.001 -0.4356  0.1348  0.1398
    1TYR     BB  761   1.790   2.486   3.662 -0.1265  0.1052 -0.0956
    1TYR    SC1  762   1.992   2.254   3.585  0.3195 -0.1678 -0.0160
    1TYR    SC2  763   2.082   2.049   3.735  0.1254 -0.3450 -0.1347
    1TYR    SC3  764   2.032   2.012   3.473  0.1159 -0.1357 -0.1644
    2ILE     BB  765   1.738   2.549   4.015 -0.2233 -0.1597 -0.0041
    2ILE    SC1  766   1.796   2.852   4.038  0.1209 -0.2112 -0.1213
    3TYR     BB  767   1.650   2.390   4.258  0.2864 -0.1588 -0.0790
    3TYR    SC1  768   1.350   2.385   4.366 -0.1426 -0.2036 -0.1921
    3TYR    SC2  769   1.198   2.464   4.574  0.1520 -0.0398 -0.0318
    3TYR    SC3  770   1.202   2.205   4.502  0.0916 -0.1093  0.2054
    1TYR     BB  771   1.697   2.793   4.521 -0.0381 -0.2275 -0.0060
    1TYR    SC1  772   1.407   2.877   4.425 -0.1707 -0.2669 -0.0283
    1TYR    SC2  773   1.145   2.920   4.380 -0.0559  0.0842 -0.4440
    1TYR    SC3  774   1.300   2.820   4.184  0.1504  0.0028 -0.2447
    2ILE     BB  775   1.740   2.778   4.872 -0.1032 -0.1038  0.0266
    2ILE    SC1  776   1.470   2.695   5.000 -0.1425  0.1603  0.1201
    3TYR     BB  777   2.024   2.943   4.938  0.0850 -0.0473 -0.1785
    3TYR    SC1  778   2.079   3.110   5.201  0.4656  0.8433 -0.2989
    3TYR    SC2  779   2.302   3.087   5.351  0.1834 -0.1408  0.0587
    3TYR    SC3  780   2.059   3.080   5.469 -0.0524  0.0273 -0.3885
    1TYR     BB  781   2.369   2.780   2.916  0.1903 -0.0062 -0.3486
    1TYR    SC1  782   2.492   2.543   2.900 -0.0834  0.0768 -0.2875
    1TYR    SC2  783   2.504   2.273   2.901  0.0082  0.0727  0.1646
    1TYR    SC3  784   2.704   2.418   3.011 -0.2403  0.3075  0.3237
    2ILE     BB  785   2.080   2.933   2.957  0.1010 -0.1988  0.1313
    2ILE    SC1  786   2.024   3.043   2.673 -0.0043  0.0632  0.2498
    3TYR     BB  787   1.870   2.906   3.122  0.1723 -0.0817  0.0979
    3TYR    SC1  788   1.629   2.766   3.114  0.0490  0.1908 -0.0849
    3TYR    SC2  789   1.462   2.608   3.256  0.2763 -0.1570 -0.1893
    3TYR    SC3  790   1.411   2.659   2.996  0.1022  0.1074 -0.1084
    1TYR     BB  791   5.383   4.613   3.270 -0.1752 -0.1682  0.1387
    1TYR    SC1  792   5.372   4.363   3.425 -0.0338  0.0703 -0.3065
    1TYR    SC2  793   5.546   4.190   3.537 -0.4099 -0.1477 -0.0278
    1TYR    SC3  794   5.338   4.097   3.391 -0.4257  0.0932 -0.1645
    2ILE     BB  795   5.476   4.903   3.413  0.2059  0.6069  0.0907
    2ILE    SC1  796   5.206   4.983   3.543 -0.1546 -0.1250 -0.1392
    3TYR     BB  797   5.340   5.149   3.113  0.2023  0.0482 -0.0324
    3TYR    SC1  798   5.158   4.936   2.992 -0.1535  0.1475 -0.2224
    3TYR    SC2  799   5.205   4.794   2.768  0.0529 -0.1296 -0.0133
    3TYR    SC3  800   4.985   4.744   2.915 -0.1621  0.1558 -0.2238
    1TYR     BB  801   0.022   4.658   2.606  0.0581 -0.1933  0.2302
    1TYR    SC1  802   0.046   4.732   2.304 -0.1684 -0.3568  0.2525
    1TYR    SC2  803   0.150   4.666   2.064 -0.2732 -0.1566  0.1482
    1TYR    SC3  804   0.072   4.920   2.111 -0.3669 -0.2210  0.3535
    2ILE     BB  805  -0.089   4.818   2.791 -0.3585  0.0228 -0.1604
    2ILE    SC1  806   0.072   4.848   3.054 -0.2230  0.0223 -0.2423
    3TYR     BB  807  -0.220   5.100   2.728  0.2589  0.1727 -0.0036
    3TYR    SC1  808  -0.046   5.299   2.822  0.1598 -0.2322 -0.1987
    3TYR    SC2  809   0.158   5.313   2.999  0.2892 -0.0194 -0.3586
    3TYR    SC3  810   0.129   5.505   2.811 -0.1273  0.0162 -0.2698
    1TYR     BB  811   6.566   3.504   3.090 -0.2419 -0.2549  0.1554
    1TYR    SC1  812   6.559   3.327   3.347 -0.2986 -0.1137  0.1418
    1TYR    SC2  813   6.653   3.181   3.554  0.2398 -0.1154 -0.0835
    1TYR    SC3  814   6.510   3.062   3.359  0.2313 -0.2342 -0.0060
    2ILE     BB  815   6.404   3.819   3.079 -0.0959 -0.0381 -0.0768
    2ILE    SC1  816   6.492   3.866   2.786  0.2260 -0.0739  0.0089
    3TYR     BB  817   6.534   4.069   3.239 -0.0285 -0.0954 -0.1392
    3TYR    SC1  818   6.592   4.089   3.515 -0.0239  0.3847 -0.1649
    3TYR    SC2  819   6.497   4.154   3.760 -0.1416 -0.0486 -0.0864
    3TYR    SC3  820   6.763   4.130   3.719 -0.1192  0.0774 -0.0144
    1TYR     BB  821  -0.552   4.855   3.079  0.2092 -0.0548  0.4135
    1TYR    SC1  822  -0.824   4.962   3.147 -0.0093  0.1031 -0.1120
    1TYR    SC2  823  -1.037   5.053   3.285 -0.1995 -0.1349 -0.2390
    1TYR    SC3  824  -1.066   4.977   3.028  0.0615 -0.0835 -0.2870
    2ILE     BB  825  -0.375   4.979   3.301  0.3969 -0.1061 -0.1184
    2ILE    SC1  826  -0.246   4.736   3.444 -0.0564 -0.2335  0.0977
    3TYR     BB  827  -0.244   5.212   3.403 -0.2810 -0.2680 -0.2630
    3TYR    SC1  828   0.070   5.196   3.457 -0.0366  0.2373  0.2152
    3TYR    SC2  829   0.305   5.063   3.441 -0.3726 -0.4074  0.2299
    3TYR    SC3  830   0.188   5.102   3.681 -0.1696  0.1660  0.2563
    1TYR     BB  831   7.295   3.265   2.415 -0.1854 -0.1623  0.0397
    1TYR    SC1  832   7.380   3.281   2.670  0.3766  0.2463 -0.2700
    1TYR    SC2  833   7.539   3.305   2.887  0.0461 -0.1046  0.0253
    1TYR    SC3  834   7.280   3.383   2.900  0.1193  0.2485 -0.3782
    2ILE     BB  835   7.062   3.293   2.306  0.1927  0.2084  0.1325
    2ILE    SC1  836   6.999   3.449   2.046  0.2769  0.0196 -0.0044
    3TYR     BB  837   6.860   3.061   2.462 -0.1703  0.0429 -0.2559
    3TYR    SC1  838   6.929   3.011   2.731 -0.1735 -0.3347  0.1401
    3TYR    SC2  839   7.090   2.970   2.944  0.0491  0.3133  0.1244
    3TYR    SC3  840   6.833   3.043   2.982  0.0723  0.3704  0.1760
    1TYR     BB  841   4.480   4.015   2.895  0.2226  0.1177  0.0797
    1TYR    SC1  842   4.541   3.734   2.973  0.1039  0.1211 -0.0458
    1TYR    SC2  843   4.714   3.527   2.976 -0.2269 -0.1735  0.4025
    1TYR    SC3  844   4.450   3.481   2.945 -0.3070  0.1837  0.4995
    2ILE     BB  845   4.639   4.087   2.656  0.0868 -0.0015 -0.1537
    2ILE    SC1  846   4.791   3.839   2.549  0.0709 -0.1228  0.0976
    3TYR     BB  847   4.862   4.306   2.630 -0.0584 -0.0090  0.1606
    3TYR    SC1  848   4.768   4.577   2.534 -0.1593 -0.2052 -0.2334
    3TYR    SC2  849   4.652   4.696   2.321 -0.0983  0.0349 -0.1364
    3TYR    SC3  850   4.871   4.806   2.434 -0.0539 -0.1601 -0.0281
    1TYR     BB  851   3.789   3.031   3.164 -0.3876  0.0359 -0.0200
    1TYR    SC1  852   3.771   2.761   3.093 -0.0034  0.2177 -0.1691
    1TYR    SC2  853   3.861   2.510   3.125 -0.1143  0.2043  0.0581
    1TYR    SC3  854   3.809   2.603   2.877  0.0772  0.0583 -0.0407
    2ILE     BB  855   3.897   3.216   2.940 -0.1061 -0.0733  0.1482
    2ILE    SC1  856   3.997   3.477   3.074  0.0786 -0.1045  0.0753
    3TYR     BB  857   4.092   3.150   2.714 -0.0827 -0.1507  0.0223
    3TYR    SC1  858   4.044   3.253   2.396 -0.0335 -0.1190 -0.1054
    3TYR    SC2  859   4.015   3.372   2.156 -0.2117 -0.0946 -0.0736
    3TYR    SC3  860   4.215   3.195   2.195 -0.1096 -0.0102 -0.2029
    1TYR     BB  861   8.189   3.859   2.622  0.0523  0.1115  0.1812
    1TYR    SC1  862   8.017   3.688   2.386  0.3005 -0.0465 -0.2138
    1TYR    SC2  863   7.758   3.613   2.382  0.2061  0.2601 -0.1550
    1TYR    SC3  864   7.928   3.519   2.194  0.1191 -0.1513 -0.0429
    2ILE     BB  865   7.921   4.042   2.764  0.3115  0.1255  0.0226
    2ILE    SC1  866   7.789   3.771   2.836  0.3921  0.1020  0.0838
    3TYR     BB  867   7.876   4.265   2.868 -0.1627  0.2095  0.1019
    3TYR    SC1  868   7.585   4.313   2.975  0.0677  0.0539  0.0487
    3TYR    SC2  869   7.341   4.198   2.959  0.1028 -0.0429  0.1913
    3TYR    SC3  870   7.366   4.446   3.060  0.0516  0.0079  0.0801
    1TYR     BB  871   5.313   4.291   2.838 -0.1008 -0.0525  0.0763
    1TYR    SC1  872   5.483   4.463   2.683  0.2479  0.2510  0.2625
    1TYR    SC2  873   5.746   4.507   2.641  0.1923  0.2134 -0.1874
    1TYR    SC3  874   5.563   4.677   2.541  0.0333 -0.0157 -0.2993
    2ILE     BB  875   5.238   4.025   2.722 -0.0112  0.2009  0.3105
    2ILE    SC1  876   5.237   3.774   2.903 -0.1312  0.0906  0.1608
    3TYR     BB  877   5.253   3.996   2.411 -0.2147 -0.0591 -0.2762
    3TYR    SC1  878   5.290   4.301   2.258  0.2787  0.1727 -0.3703
    3TYR    SC2  879   5.112   4.459   2.131 -0.0203  0.0283 -0.1478
    3TYR    SC3  880   5.221   4.541   2.364  0.0915  0.0498 -0.2064
    1TYR     BB  881   0.613   5.406   2.994  0.1877 -0.2014  0.1521
    1TYR    SC1  882   0.901   5.593   2.942  0.0781 -0.0512  0.1763
    1TYR    SC2  883   1.116   5.631   2.784  0.0438 -0.0299  0.1343
    1TYR    SC3  884   0.940   5.832   2.823 -0.3211 -0.2292 -0.3608
    2ILE     BB  885   0.875   5.095   2.973  0.2550  0.3589  0.1825
    2ILE    SC1  886   1.135   5.127   2.808  0.2462  0.1930  0.1341
    3TYR     BB  887   0.758   4.894   3.196  0.0971 -0.2812  0.1431
    3TYR    SC1  888   0.782   5.040   3.442 -0.0291 -0.3764 -0.0917
    3TYR    SC2  889   0.686   5.222   3.617  0.1120 -0.0481 -0.3410
    3TYR    SC3  890   0.766   4.979   3.704  0.0578  0.0571  0.0249
    1TYR     BB  891   4.329   3.161   3.312 -0.1258 -0.2713  0.1634
    1TYR    SC1  892   4.413   3.202   3.619 -0.2744 -0.1050  0.0762
    1TYR    SC2  893   4.404   3.389   3.815  0.4317 -0.1595  0.1953
    1TYR    SC3  894   4.553   3.166   3.847  0.3723 -0.2892 -0.3173
    2ILE     BB  895   4.247   2.852   3.249  0.2056 -0.0753  0.0606
    2ILE    SC1  896   4.239   2.725   3.531 -0.1505 -0.3136 -0.0485
    3TYR     BB  897   4.288   2.762   2.984  0.0705  0.2018  0.0076
    3TYR    SC1  898   4.505   2.561   2.973 -0.1608 -0.1125  0.2260
    3TYR    SC2  899   4.734   2.505   3.105 -0.1078 -0.0472  0.1628
    3TYR    SC3  900   4.586   2.305   3.001 -0.0285 -0.0839  0.1200
    1TYR     BB  901   7.905   2.709   3.418 -0.0329  0.4585  0.1926
    1TYR    SC1  902   8.129   2.582   3.574  0.1337 -0.1337 -0.2048
    1TYR    SC2  903   8.309   2.502   3.759  0.1226 -0.0422 -0.1533
    1TYR    SC3  904   8.379   2.682   3.571  0.1585 -0.1966 -0.2918
    2ILE     BB  905   7.770   2.981   3.636 -0.0714  0.2523  0.0168
    2ILE    SC1  906   7.965   3.140   3.817  0.1156  0.0574 -0.0076
    3TYR     BB  907   7.477   2.985   3.706 -0.1553 -0.0232  0.0003
    3TYR    SC1  908   7.434   3.089   4.011 -0.3349  0.0026 -0.0251
    3TYR    SC2  909   7.537   3.291   4.159  0.1571  0.0680 -0.4229
    3TYR    SC3  910   7.537   3.038   4.256 -0.5345  0.2359  0.1135
    1TYR     BB  911   4.974   4.091   1.787 -0.0919  0.0634  0.1385
    1TYR    SC1  912   4.843   4.094   2.087  0.0823  0.1440  0.0333
    1TYR    SC2  913   4.680   4.293   2.166 -0.0382  0.0984 -0.0942
    1TYR    SC3  914   4.595   4.037   2.179  0.0874  0.0601 -0.0027
    2ILE     BB  915   5.271   4.034   1.890  0.0686  0.2285  0.1752
    2ILE    SC1  916   5.448   4.215   1.712  0.1297 -0.1941 -0.2215
    3TYR     BB  917   5.376   3.782   2.007  0.2043 -0.3186  0.0643
    3TYR    SC1  918   5.567   3.690   1.811  0.0146 -0.2114  0.0007
    3TYR    SC2  919   5.578   3.723   1.543  0.0239 -0.1347  0.0102
    3TYR    SC3  920   5.765   3.575   1.669 -0.0165 -0.2229 -0.0335
    1TYR     BB  921   5.481   3.586   2.528 -0.0851 -0.0001  0.2369
    1TYR    SC1  922   5.546   3.407   2.789  0.1956  0.0711 -0.0724
    1TYR    SC2  923   5.633   3.399   3.044 -0.1315 -0.0018  0.0431
    1TYR    SC3  924   5.552   3.173   2.922 -0.1575  0.0624 -0.0609
    2ILE     BB  925   5.135   3.426   2.407 -0.0439  0.1380  0.1190
    2ILE    SC1  926   5.090   3.275   2.674 -0.0926 -0.1452 -0.0436
    3TYR     BB  927   4.983   3.555   2.208 -0.2930 -0.0170 -0.1900
    3TYR    SC1  928   4.721   3.555   2.088 -0.0428 -0.2320  0.3567
    3TYR    SC2  929   4.469   3.532   1.995  0.0709  0.0944 -0.0688
    3TYR    SC3  930   4.630   3.728   1.903  0.4708 -0.0778  0.2278
    1TYR     BB  931   2.950   3.446   4.761  0.0641 -0.0431  0.0114
    1TYR    SC1  932   2.856   3.398   5.080  0.1284  0.3977  0.2703
    1TYR    SC2  933   2.916   3.398   5.344 -0.1243  0.1686  0.3331
    1TYR    SC3  934   2.659   3.374   5.263 -0.0743  0.4530  0.0646
    2ILE     BB  935   3.224   3.496   4.688 -0.0923 -0.1134 -0.1782
    2ILE    SC1  936   3.377   3.228   4.731  0.5841  0.2710 -0.0158
    3TYR     BB  937   3.389   3.782   4.677 -0.2187 -0.1099 -0.1472
    3TYR    SC1  938   3.251   4.009   4.763  0.3928 -0.1219 -0.2696
    3TYR    SC2  939   2.993   4.076   4.719  0.3443 -0.2625 -0.2048
    3TYR    SC3  940   3.160   4.253   4.836  0.1728 -0.3120  0.1290
    1TYR     BB  941   3.287   3.481   4.234  0.2546  0.2314  0.1091
    1TYR    SC1  942   3.060   3.411   4.002 -0.1686  0.1305  0.1411
    1TYR    SC2  943   2.807   3.358   3.923 -0.1391  0.1949 -0.0017
    1TYR    SC3  944   3.001   3.391   3.739 -0.0171  0.1044  0.1083
    2ILE     BB  945   3.585   3.478   4.215  0.0263  0.2645 -0.0471
    2ILE    SC1  946   3.726   3.286   4.414 -0.0849 -0.0304 -0.2439
    3TYR     BB  947   3.790   3.555   3.985 -0.1492 -0.1380 -0.3637
    3TYR    SC1  948   3.989   3.295   3.915  0.1537 -0.0523  0.2967
    3TYR    SC2  949   4.049   3.091   3.748  0.0360  0.2172 -0.0908
    3TYR    SC3  950   3.927   3.042   3.983  0.2046 -0.1733 -0.0771
    1TYR     BB  951   6.122   4.004   4.513  0.1175  0.2063 -0.1229
    1TYR    SC1  952   6.230   4.181   4.714 -0.0337 -0.1165 -0.0127
    1TYR    SC2  953   6.373   4.295   4.912 -0.3384  0.0838  0.0993
    1TYR    SC3  954   6.163   4.426   4.804 -0.0856  0.0508 -0.4732
    2ILE     BB  955   6.100   3.721   4.622  0.2877  0.2424  0.0565
    2ILE    SC1  956   6.017   3.685   4.918 -0.0066 -0.4508 -0.0877
    3TYR     BB  957   6.188   3.390   4.566  0.0243 -0.5269  0.0507
    3TYR    SC1  958   6.487   3.456   4.706  0.1187 -0.0273  0.1309
    3TYR    SC2  959   6.623   3.391   4.930  0.2391  0.0865  0.0917
    3TYR    SC3  960   6.754   3.422   4.695  0.1306  0.0885  0.0306
    1TYR     BB  961   6.442   3.114   2.762 -0.0121 -0.4177 -0.0721
    1TYR    SC1  962   6.263   3.165   2.981  0.2041  0.0289  0.3166
    1TYR    SC2  963   6.080   3.337   3.080  0.0297  0.0995 -0.1007
    1TYR    SC3  964   6.046   3.070   3.111 -0.0198  0.1194  0.0239
    2ILE     BB  965   6.543   3.430   2.609  0.0831 -0.3376  0.0909
    2ILE    SC1  966   6.828   3.536   2.667 -0.0864  0.1623  0.0622
    3TYR     BB  967   6.411   3.632   2.322 -0.0339  0.0635 -0.1727
    3TYR    SC1  968   6.517   3.411   2.134 -0.0856  0.1319  0.1640
    3TYR    SC2  969   6.436   3.159   2.182 -0.2694  0.1402 -0.0796
    3TYR    SC3  970   6.601   3.209   1.975  0.0111  0.1851  0.1463
    1TYR     BB  971   1.012   3.915   2.982 -0.0663  0.1981 -0.1535
    1TYR    SC1  972   1.303   3.998   2.914 -0.0305 -0.1070 -0.0521
    1TYR    SC2  973   1.434   3.951   2.683 -0.1132 -0.2056 -0.0798
    1TYR    SC3  974   1.537   4.122   2.864 -0.0215 -0.1685 -0.1662
    2ILE     BB  975   0.898   3.594   2.985  0.2710  0.0602 -0.0398
    2ILE    SC1  976   0.589   3.589   3.010  0.2878  0.0593  0.1945
    3TYR     BB  977   1.005   3.455   3.166  0.0839  0.0892  0.1036
    3TYR    SC1  978   0.818   3.319   3.404 -0.0732 -0.0764 -0.2300
    3TYR    SC2  979   0.664   3.124   3.512  0.1514 -0.1801 -0.0859
    3TYR    SC3  980   0.566   3.374   3.481  0.0225 -0.1910  0.1995
    1TYR     BB  981   4.904   3.188   3.301 -0.0400 -0.2976  0.1116
    1TYR    SC1  982   4.766   2.951   3.460  0.0282  0.2615  0.0438
    1TYR    SC2  983   4.694   2.768   3.645 -0.0790  0.1736 -0.0821
    1TYR    SC3  984   4.883   2.707   3.462  0.1000  0.2956  0.0572
    2ILE     BB  985   4.854   3.453   3.509 -0.1156 -0.3622 -0.0857
    2ILE    SC1  986   4.994   3.694   3.374  0.1578 -0.3523  0.2023
    3TYR     BB  987   4.977   3.397   3.838  0.0409 -0.1050  0.3246
    3TYR    SC1  988   5.069   3.117   3.828  0.0107 -0.1135  0.0491
    3TYR    SC2  989   5.058   2.858   3.898  0.1077 -0.0361  0.3725
    3TYR    SC3  990   5.183   2.931   3.670 -0.0636 -0.2835  0.1925
    1TYR     BB  991   6.163   4.692   2.393  0.0473  0.0857 -0.2405
    1TYR    SC1  992   6.212   4.827   2.150  0.0948 -0.0923  0.2037
    1TYR    SC2  993   6.133   5.005   1.962 -0.0460 -0.1222  0.2332
    1TYR    SC3  994   6.343   4.842   1.914  0.1536  0.1236  0.2471
    2ILE     BB  995   6.256   4.347   2.313 -0.1179 -0.0004  0.0612
    2ILE    SC1  996   6.290   4.323   2.005  0.2011  0.0290  0.0901
    3TYR     BB  997   6.415   4.192   2.445  0.0844 -0.2201  0.0323
    3TYR    SC1  998   6.698   4.086   2.348  0.0347 -0.3231  0.0961
    3TYR    SC2  999   6.820   3.900   2.194  0.4385 -0.0642  0.0869
    3TYR    SC3 1000   6.954   4.122   2.271 -0.0364  0.2455  0.0735
   7.64394   7.64394   7.64394
