Generated by trjconv : Martini system from ../2_Creating_coordinates/TYR-TRP-TYR_aa.pdb t=   0.00000
 1300
    1TYR     BB    1   6.766   3.307   3.893 -0.3805  0.2255  0.0281
    1TYR    SC1    2   7.041   3.289   4.026 -0.0379  0.1886  0.1053
    1TYR    SC2    3   7.166   3.366   4.253  0.3384 -0.2214  0.0545
    1TYR    SC3    4   7.311   3.301   4.034  0.0016 -0.2334 -0.1746
    2TRP     BB    5   6.638   3.466   4.062 -0.0215  0.1615  0.0223
    2TRP    SC1    6   6.349   3.348   4.182 -0.1945 -0.1021 -0.0114
    2TRP    SC2    7   6.167   3.197   4.311 -0.2917 -0.0632 -0.1022
    2TRP    SC3    8   6.350   3.080   4.151 -0.0733 -0.1267  0.1862
    2TRP    SC4    9   6.155   2.931   4.265 -0.1579 -0.1021  0.0745
    3TYR     BB   10   6.682   3.712   4.297 -0.2601 -0.0575  0.1680
    3TYR    SC1   11   6.641   3.977   4.121 -0.0982 -0.0094 -0.2298
    3TYR    SC2   12   6.595   4.137   3.908  0.0037  0.0725 -0.1917
    3TYR    SC3   13   6.575   4.236   4.159 -0.1705 -0.0377 -0.1597
    1TYR     BB   14   3.294   5.241   3.282 -0.0060 -0.0968 -0.2074
    1TYR    SC1   15   3.129   5.141   3.017 -0.1110 -0.0685  0.3128
    1TYR    SC2   16   2.932   5.039   2.864 -0.0230  0.0340  0.1272
    1TYR    SC3   17   3.154   4.893   2.916 -0.0799 -0.0241  0.2101
    2TRP     BB   18   3.417   5.619   3.145  0.1621  0.2856 -0.0037
    2TRP    SC1   19   3.345   5.728   3.410 -0.0585  0.1946  0.0614
    2TRP    SC2   20   3.191   5.730   3.632 -0.0276 -0.1195  0.0906
    2TRP    SC3   21   3.443   5.632   3.643  0.0393  0.0315 -0.0440
    2TRP    SC4   22   3.279   5.609   3.857  0.0610 -0.3435 -0.0589
    3TYR     BB   23   3.548   5.624   2.942 -0.2767 -0.3016  0.3006
    3TYR    SC1   24   3.809   5.737   2.842 -0.1408  0.1204  0.0797
    3TYR    SC2   25   4.017   5.779   2.675 -0.1198  0.2544  0.1379
    3TYR    SC3   26   4.002   5.915   2.909 -0.3232  0.3208  0.0894
    1TYR     BB   27   4.708   3.521   4.987  0.0433  0.2834  0.1041
    1TYR    SC1   28   4.589   3.628   4.750 -0.2001 -0.0874 -0.1911
    1TYR    SC2   29   4.389   3.715   4.592  0.1001  0.2176 -0.4189
    1TYR    SC3   30   4.606   3.870   4.633  0.0127  0.1789  0.3506
    2TRP     BB   31   4.963   3.736   5.010  0.2387  0.2093 -0.2348
    2TRP    SC1   32   4.967   3.982   4.894  0.1071 -0.2598  0.2093
    2TRP    SC2   33   4.906   4.236   4.829  0.3497 -0.3072 -0.2469
    2TRP    SC3   34   5.122   4.184   4.983  0.0931 -0.2252  0.1548
    2TRP    SC4   35   5.067   4.438   4.908  0.2167 -0.2646 -0.0784
    3TYR     BB   36   5.293   3.758   5.170 -0.1060  0.1173 -0.1883
    3TYR    SC1   37   5.521   3.562   5.040  0.0790 -0.1814 -0.6044
    3TYR    SC2   38   5.755   3.544   4.907  0.3953 -0.1434 -0.0859
    3TYR    SC3   39   5.677   3.344   5.072  0.0980 -0.1180 -0.1895
    1TYR     BB   40   1.931   6.683   3.746  0.0195  0.2736  0.2562
    1TYR    SC1   41   2.061   6.832   3.511  0.0667 -0.3663 -0.0982
    1TYR    SC2   42   1.987   6.860   3.253 -0.0194  0.0867 -0.0354
    1TYR    SC3   43   2.185   7.013   3.354 -0.2390  0.1867  0.2598
    2TRP     BB   44   1.792   6.801   3.969  0.1547 -0.3131 -0.0588
    2TRP    SC1   45   1.546   6.700   4.067 -0.1353  0.0767  0.1085
    2TRP    SC2   46   1.298   6.658   4.166 -0.0430 -0.0798  0.2802
    2TRP    SC3   47   1.484   6.787   4.315 -0.0511  0.1349  0.1099
    2TRP    SC4   48   1.231   6.760   4.407 -0.1626  0.6161 -0.0171
    3TYR     BB   49   1.772   7.116   4.030 -0.0770 -0.0084 -0.0222
    3TYR    SC1   50   1.671   7.183   4.311 -0.0327  0.3002  0.1347
    3TYR    SC2   51   1.616   7.116   4.566  0.1539  0.0403  0.1112
    3TYR    SC3   52   1.735   7.352   4.512 -0.4575  0.3959  0.2009
    1TYR     BB   53   7.365   4.736   4.045 -0.2077  0.0806 -0.2119
    1TYR    SC1   54   7.307   4.727   3.746  0.0469 -0.0920  0.1268
    1TYR    SC2   55   7.109   4.779   3.571  0.0294  0.1282  0.2098
    1TYR    SC3   56   7.357   4.726   3.480 -0.0264  0.0292  0.1119
    2TRP     BB   57   7.263   4.867   4.329 -0.1176  0.1551  0.1435
    2TRP    SC1   58   7.250   5.188   4.294 -0.3371 -0.2976  0.1455
    2TRP    SC2   59   7.142   5.434   4.313 -0.2754 -0.2546 -0.0442
    2TRP    SC3   60   7.292   5.337   4.515 -0.2985 -0.1360  0.0310
    2TRP    SC4   61   7.187   5.585   4.532 -0.0908 -0.0241 -0.2336
    3TYR     BB   62   6.984   4.767   4.531 -0.1792  0.1056 -0.1758
    3TYR    SC1   63   6.914   5.054   4.641 -0.6856  0.0848  0.2449
    3TYR    SC2   64   6.950   5.278   4.788  0.1569  0.1260  0.0339
    3TYR    SC3   65   6.818   5.291   4.553 -0.2302  0.2863  0.2511
    1TYR     BB   66   8.339   3.185   4.979 -0.0210 -0.1356 -0.4737
    1TYR    SC1   67   8.191   3.278   4.697 -0.2945  0.0556  0.0500
    1TYR    SC2   68   7.991   3.148   4.572 -0.2046  0.0334 -0.0735
    1TYR    SC3   69   8.087   3.379   4.469 -0.0862 -0.0187 -0.0824
    2TRP     BB   70   8.607   3.246   4.990 -0.0369  0.0857  0.1855
    2TRP    SC1   71   8.691   3.527   5.062 -0.1025  0.3866 -0.0727
    2TRP    SC2   72   8.674   3.784   5.143 -0.0343  0.3104  0.1994
    2TRP    SC3   73   8.608   3.585   5.312 -0.2175  0.1484 -0.0522
    2TRP    SC4   74   8.583   3.842   5.390 -0.1792  0.0790  0.2036
    3TYR     BB   75   8.849   3.078   4.896  0.1062  0.2171 -0.0360
    3TYR    SC1   76   8.928   2.880   5.163  0.1483 -0.4370 -0.2700
    3TYR    SC2   77   8.854   2.747   5.386 -0.2024  0.1954  0.0271
    3TYR    SC3   78   9.102   2.854   5.369 -0.1550  0.0968  0.0822
    1TYR     BB   79   3.733   4.332   5.659 -0.1041 -0.1046  0.0080
    1TYR    SC1   80   3.920   4.539   5.445  0.0298  0.0195 -0.2557
    1TYR    SC2   81   3.966   4.475   5.187 -0.0672  0.2486 -0.3329
    1TYR    SC3   82   3.991   4.730   5.269 -0.0471  0.1796 -0.1156
    2TRP     BB   83   3.538   4.192   5.390 -0.0323 -0.0500  0.1713
    2TRP    SC1   84   3.359   4.416   5.234 -0.4202  0.6145  0.5392
    2TRP    SC2   85   3.284   4.598   5.050  0.0172  0.2185 -0.0820
    2TRP    SC3   86   3.490   4.651   5.216 -0.1461  0.4431  0.0573
    2TRP    SC4   87   3.390   4.847   5.061 -0.1906  0.3093 -0.0852
    3TYR     BB   88   3.515   3.929   5.414  0.0168 -0.2928  0.0547
    3TYR    SC1   89   3.559   3.702   5.244 -0.1403 -0.0472  0.1287
    3TYR    SC2   90   3.502   3.456   5.146  0.5117 -0.2125  0.1079
    3TYR    SC3   91   3.455   3.676   4.996 -0.3924 -0.2635  0.2511
    1TYR     BB   92   4.778   4.811   3.199 -0.1474  0.1946  0.1644
    1TYR    SC1   93   4.703   5.116   3.091  0.1337  0.0413  0.1930
    1TYR    SC2   94   4.566   5.340   3.029  0.3050  0.0809 -0.0612
    1TYR    SC3   95   4.804   5.291   2.911  0.1659 -0.3469 -0.1868
    2TRP     BB   96   4.597   4.592   3.516 -0.1128  0.1023 -0.0715
    2TRP    SC1   97   4.873   4.431   3.523  0.1566 -0.0389  0.0751
    2TRP    SC2   98   5.055   4.231   3.516  0.0914 -0.0943 -0.0664
    2TRP    SC3   99   4.888   4.271   3.306 -0.4888 -0.4458  0.2938
    2TRP    SC4  100   5.082   4.083   3.291 -0.1699 -0.1085 -0.0926
    3TYR     BB  101   4.354   4.583   3.566 -0.4345  0.0522 -0.0112
    3TYR    SC1  102   4.214   4.472   3.840  0.0604  0.0555  0.1372
    3TYR    SC2  103   4.104   4.247   3.939  0.1687  0.0333  0.2093
    3TYR    SC3  104   4.172   4.449   4.106 -0.2920  0.2880  0.1102
    1TYR     BB  105   8.338   4.404   4.189 -0.2186 -0.2192 -0.2451
    1TYR    SC1  106   8.471   4.384   4.493 -0.0058 -0.1623  0.0558
    1TYR    SC2  107   8.526   4.552   4.698  0.0616 -0.0681 -0.0379
    1TYR    SC3  108   8.727   4.425   4.568  0.0265 -0.0570 -0.1038
    2TRP     BB  109   8.130   4.602   4.253  0.0006  0.0651  0.1530
    2TRP    SC1  110   8.232   4.821   4.448 -0.0047 -0.0831 -0.1496
    2TRP    SC2  111   8.351   4.937   4.660 -0.0598 -0.2227 -0.0408
    2TRP    SC3  112   8.136   4.778   4.697  0.0789 -0.4484 -0.1729
    2TRP    SC4  113   8.245   4.907   4.907 -0.3232 -0.1372 -0.1401
    3TYR     BB  114   7.845   4.722   4.099 -0.0876  0.0341  0.0410
    3TYR    SC1  115   7.797   4.988   4.230  0.0856 -0.0732  0.0068
    3TYR    SC2  116   7.685   5.220   4.312 -0.2203 -0.1340 -0.2130
    3TYR    SC3  117   7.914   5.132   4.427 -0.4165 -0.0276  0.2955
    1TYR     BB  118   3.117   2.464   2.811  0.1392 -0.0480  0.1378
    1TYR    SC1  119   3.211   2.205   2.975 -0.4442  0.2524  0.3503
    1TYR    SC2  120   3.252   1.941   3.014 -0.0799  0.1533 -0.4458
    1TYR    SC3  121   3.434   2.121   3.104 -0.1542  0.1136 -0.2040
    2TRP     BB  122   2.846   2.505   2.982 -0.0697 -0.3057 -0.1493
    2TRP    SC1  123   2.619   2.574   2.818  0.1542 -0.0018  0.1101
    2TRP    SC2  124   2.470   2.484   2.612  0.0232  0.0579  0.1773
    2TRP    SC3  125   2.405   2.417   2.864  0.2677 -0.1340  0.1936
    2TRP    SC4  126   2.281   2.297   2.657  0.0834  0.0067  0.2196
    3TYR     BB  127   2.761   2.340   3.257 -0.3751  0.0596  0.1945
    3TYR    SC1  128   2.445   2.318   3.293 -0.1366  0.3160  0.1788
    3TYR    SC2  129   2.180   2.347   3.252 -0.1432  0.0998  0.0540
    3TYR    SC3  130   2.269   2.219   3.471 -0.1439  0.1231  0.0679
    1TYR     BB  131   0.655   2.712   4.281 -0.0087 -0.2792  0.0947
    1TYR    SC1  132   0.530   2.990   4.202 -0.0360 -0.0338  0.2185
    1TYR    SC2  133   0.367   3.200   4.250  0.2605  0.2192  0.1700
    1TYR    SC3  134   0.516   3.195   4.026 -0.0023 -0.2253 -0.0116
    2TRP     BB  135   0.669   2.570   4.533  0.1004 -0.1784  0.0747
    2TRP    SC1  136   0.769   2.713   4.759 -0.1332  0.0564  0.1757
    2TRP    SC2  137   0.978   2.821   4.893  0.2219 -0.0507 -0.2616
    2TRP    SC3  138   0.900   2.567   4.944  0.0977  0.0363  0.0024
    2TRP    SC4  139   1.096   2.679   5.091 -0.0070  0.1686  0.0432
    3TYR     BB  140   0.954   2.357   4.474  0.2125  0.0366  0.1299
    3TYR    SC1  141   1.210   2.452   4.600 -0.1985  0.0653 -0.5053
    3TYR    SC2  142   1.461   2.372   4.655 -0.2984  0.0032 -0.1055
    3TYR    SC3  143   1.393   2.630   4.689 -0.3496 -0.0271  0.0287
    1TYR     BB  144   5.712   3.077   4.051 -0.1654  0.2294  0.1199
    1TYR    SC1  145   5.620   3.211   4.260  0.0724 -0.0671  0.1500
    1TYR    SC2  146   5.726   3.367   4.453  0.1136  0.2074 -0.0862
    1TYR    SC3  147   5.502   3.227   4.503  0.0594  0.3623  0.1253
    2TRP     BB  148   5.538   3.174   3.717 -0.4027 -0.1734 -0.0533
    2TRP    SC1  149   5.303   3.307   3.798  0.0563  0.2427 -0.0148
    2TRP    SC2  150   5.065   3.349   3.921 -0.0349  0.2149 -0.1772
    2TRP    SC3  151   5.296   3.409   4.048 -0.1098 -0.0994  0.1299
    2TRP    SC4  152   5.059   3.444   4.173 -0.2093 -0.1161 -0.0484
    3TYR     BB  153   5.585   3.212   3.453  0.0344 -0.1838 -0.3236
    3TYR    SC1  154   5.776   3.413   3.310  0.2091  0.0986  0.3136
    3TYR    SC2  155   5.898   3.504   3.087  0.0901 -0.1432  0.1438
    3TYR    SC3  156   6.024   3.517   3.325  0.2932 -0.0474  0.0337
    1TYR     BB  157   7.871   5.383   3.822  0.4762  0.1497 -0.3981
    1TYR    SC1  158   8.054   5.177   3.884 -0.0440 -0.1145 -0.1145
    1TYR    SC2  159   8.221   4.967   3.859  0.0654 -0.0413 -0.0160
    1TYR    SC3  160   8.240   5.128   4.075 -0.0762  0.0181 -0.0473
    2TRP     BB  161   7.519   5.184   3.869 -0.0775 -0.0097  0.2955
    2TRP    SC1  162   7.659   4.945   3.726  0.1438  0.2737  0.1928
    2TRP    SC2  163   7.855   4.803   3.608  0.0149  0.1164  0.1644
    2TRP    SC3  164   7.714   4.982   3.464  0.1795  0.2792  0.2008
    2TRP    SC4  165   7.921   4.851   3.351 -0.0962 -0.0870  0.0947
    3TYR     BB  166   7.247   5.283   3.744 -0.4368  0.0600 -0.2562
    3TYR    SC1  167   7.049   5.146   3.937  0.0656 -0.2449  0.0039
    3TYR    SC2  168   6.844   5.039   3.797  0.0031 -0.2623  0.1065
    3TYR    SC3  169   6.860   4.999   4.063 -0.0034 -0.0430  0.1418
    1TYR     BB  170   1.422   6.053   3.052 -0.0250  0.2561 -0.1180
    1TYR    SC1  171   1.238   5.851   3.174  0.1153 -0.0202  0.3968
    1TYR    SC2  172   1.005   5.766   3.280 -0.1459  0.0660 -0.0720
    1TYR    SC3  173   1.197   5.588   3.215 -0.1647 -0.0273  0.1185
    2TRP     BB  174   1.633   6.116   3.300  0.1167  0.0035 -0.0570
    2TRP    SC1  175   1.595   5.924   3.509 -0.0641 -0.0743  0.1264
    2TRP    SC2  176   1.593   5.834   3.764 -0.0532  0.0083  0.1560
    2TRP    SC3  177   1.397   5.761   3.593 -0.0695 -0.0339  0.1927
    2TRP    SC4  178   1.421   5.638   3.833  0.1606 -0.2113  0.0832
    3TYR     BB  179   1.573   6.395   3.513 -0.0239 -0.2619  0.2093
    3TYR    SC1  180   1.515   6.324   3.812  0.0235 -0.3387  0.2369
    3TYR    SC2  181   1.715   6.293   3.991  0.1090 -0.2407  0.1602
    3TYR    SC3  182   1.471   6.190   4.041  0.0466  0.0383  0.4736
    1TYR     BB  183   3.146   5.996   2.757 -0.1049 -0.0048 -0.1628
    1TYR    SC1  184   3.004   5.936   2.533 -0.1026 -0.0053  0.1765
    1TYR    SC2  185   2.991   5.735   2.354  0.2810 -0.0498  0.1892
    1TYR    SC3  186   3.019   5.989   2.269 -0.2070  0.0098  0.1730
    2TRP     BB  187   3.433   6.068   2.717  0.2094 -0.0882 -0.1413
    2TRP    SC1  188   3.513   5.888   2.481 -0.1489  0.1355  0.2456
    2TRP    SC2  189   3.644   5.799   2.262  0.0129  0.3739  0.2402
    2TRP    SC3  190   3.443   5.977   2.235 -0.2583  0.0810  0.2566
    2TRP    SC4  191   3.569   5.883   2.016 -0.3486  0.0375  0.2224
    3TYR     BB  192   3.668   6.262   2.714  0.0486 -0.3615  0.2271
    3TYR    SC1  193   3.712   6.563   2.712 -0.0839  0.1431  0.0474
    3TYR    SC2  194   3.836   6.803   2.726  0.0033  0.0914  0.1893
    3TYR    SC3  195   3.598   6.781   2.600  0.1705  0.1777 -0.1564
    1TYR     BB  196   0.570   2.721   3.427  0.1599  0.0891  0.3658
    1TYR    SC1  197   0.397   3.001   3.434  0.0751  0.2666  0.1327
    1TYR    SC2  198   0.367   3.218   3.592 -0.2085  0.2730  0.0741
    1TYR    SC3  199   0.188   3.167   3.396  0.0321  0.1589 -0.1219
    2TRP     BB  200   0.415   2.469   3.402 -0.1225  0.1271 -0.0826
    2TRP    SC1  201   0.565   2.232   3.622 -0.1378 -0.0987 -0.1013
    2TRP    SC2  202   0.699   2.142   3.839 -0.2712 -0.1102 -0.0229
    2TRP    SC3  203   0.696   2.406   3.782  0.2103 -0.1545 -0.3131
    2TRP    SC4  204   0.840   2.313   3.992 -0.3792 -0.1502  0.1253
    3TYR     BB  205   0.314   2.367   3.099 -0.3189 -0.1999  0.0415
    3TYR    SC1  206   0.430   2.046   3.062 -0.3028 -0.0963 -0.0789
    3TYR    SC2  207   0.433   1.779   3.022 -0.2097 -0.0915 -0.1095
    3TYR    SC3  208   0.620   1.934   2.905 -0.1613 -0.0330  0.0441
    1TYR     BB  209   3.712   4.567   4.141 -0.2038  0.1867 -0.0474
    1TYR    SC1  210   3.410   4.744   4.177 -0.0935  0.2995 -0.3069
    1TYR    SC2  211   3.289   4.938   4.321  0.1014  0.3435 -0.1968
    1TYR    SC3  212   3.149   4.797   4.137 -0.1541  0.2860  0.0350
    2TRP     BB  213   3.699   4.291   4.282  0.2950  0.0585 -0.0495
    2TRP    SC1  214   3.911   4.328   4.500 -0.0115 -0.1657  0.4748
    2TRP    SC2  215   4.071   4.365   4.714  0.4319 -0.1647  0.1613
    2TRP    SC3  216   4.053   4.557   4.524 -0.1115 -0.0801  0.2783
    2TRP    SC4  217   4.182   4.609   4.756  0.2427 -0.0643  0.0880
    3TYR     BB  218   3.667   4.068   4.057  0.3173  0.2778 -0.0261
    3TYR    SC1  219   3.622   3.824   4.040  0.3347  0.0451 -0.4508
    3TYR    SC2  220   3.717   3.580   3.972 -0.1193 -0.1457 -0.4442
    3TYR    SC3  221   3.645   3.632   4.228  0.2761  0.1131 -0.3731
    1TYR     BB  222  -0.178   2.071   4.273 -0.1892 -0.0579  0.1384
    1TYR    SC1  223  -0.114   1.846   4.107 -0.1157  0.0201 -0.2160
    1TYR    SC2  224  -0.163   1.621   3.965 -0.0397 -0.1789  0.0632
    1TYR    SC3  225  -0.056   1.836   3.843 -0.1160 -0.2903 -0.2093
    2TRP     BB  226  -0.040   2.348   4.376  0.0774  0.1977 -0.3111
    2TRP    SC1  227   0.192   2.293   4.578 -0.4006  0.3175  0.1820
    2TRP    SC2  228   0.351   2.280   4.796 -0.2544  0.0386  0.0653
    2TRP    SC3  229   0.178   2.485   4.767 -0.2918  0.0700  0.4518
    2TRP    SC4  230   0.346   2.478   4.979  0.2687  0.0974  0.0362
    3TYR     BB  231  -0.013   2.650   4.243 -0.0452  0.0547  0.0616
    3TYR    SC1  232   0.174   2.783   4.454  0.0305 -0.2147  0.2193
    3TYR    SC2  233   0.110   3.024   4.559  0.2731 -0.1448  0.2137
    3TYR    SC3  234   0.306   2.875   4.671  0.4254 -0.1416 -0.0371
    1TYR     BB  235  -2.205   2.259   3.812  0.2568 -0.0052  0.2604
    1TYR    SC1  236  -2.477   2.291   3.990  0.0039  0.0141 -0.1505
    1TYR    SC2  237  -2.742   2.243   4.010  0.0307 -0.0831 -0.0029
    1TYR    SC3  238  -2.609   2.348   4.219  0.0679  0.1816 -0.1539
    2TRP     BB  239  -2.261   2.397   3.500  0.1361 -0.2134 -0.0890
    2TRP    SC1  240  -2.539   2.289   3.396  0.0408 -0.1818  0.0172
    2TRP    SC2  241  -2.770   2.170   3.325  0.0222 -0.0838 -0.0914
    2TRP    SC3  242  -2.679   2.148   3.578 -0.1249 -0.0917 -0.0377
    2TRP    SC4  243  -2.913   2.034   3.509 -0.0435 -0.1635 -0.2003
    3TYR     BB  244  -2.181   2.668   3.488  0.1588  0.4348 -0.1378
    3TYR    SC1  245  -2.245   2.968   3.523 -0.2317 -0.0484  0.1278
    3TYR    SC2  246  -2.203   3.164   3.703  0.1021  0.1218 -0.1208
    3TYR    SC3  247  -2.349   3.214   3.482 -0.3418 -0.0978  0.1071
    1TYR     BB  248   5.805   1.737   3.510 -0.2514 -0.1243 -0.2518
    1TYR    SC1  249   5.919   1.570   3.330 -0.2245  0.1253 -0.0861
    1TYR    SC2  250   6.047   1.333   3.325  0.0039  0.2232  0.3799
    1TYR    SC3  251   6.131   1.535   3.166 -0.0755  0.0563  0.1167
    2TRP     BB  252   5.965   2.036   3.738 -0.0634 -0.1290 -0.0940
    2TRP    SC1  253   5.676   2.123   3.801  0.1121 -0.1283  0.0362
    2TRP    SC2  254   5.449   2.245   3.881  0.1932  0.1721 -0.1730
    2TRP    SC3  255   5.676   2.277   4.024  0.1324 -0.0424 -0.0227
    2TRP    SC4  256   5.443   2.380   4.115  0.1023 -0.1379  0.0101
    3TYR     BB  257   6.154   2.133   3.957  0.0771  0.1759  0.2106
    3TYR    SC1  258   6.449   2.041   3.994  0.0290 -0.1098  0.1319
    3TYR    SC2  259   6.650   1.971   3.829  0.1195 -0.2065  0.2794
    3TYR    SC3  260   6.705   2.056   4.079 -0.0179 -0.1031  0.2761
    1TYR     BB  261   5.828   3.896   3.615  0.3026  0.1419 -0.2404
    1TYR    SC1  262   5.710   4.148   3.499  0.0684 -0.0741  0.2570
    1TYR    SC2  263   5.478   4.240   3.603  0.0260 -0.0197  0.1172
    1TYR    SC3  264   5.560   4.325   3.360  0.0100 -0.3155  0.0026
    2TRP     BB  265   6.110   3.892   3.768  0.0470 -0.0795 -0.0890
    2TRP    SC1  266   6.323   3.819   3.555  0.0941  0.2325 -0.2758
    2TRP    SC2  267   6.516   3.704   3.405  0.1117  0.0481 -0.1163
    2TRP    SC3  268   6.579   3.822   3.639  0.0825  0.3250 -0.2424
    2TRP    SC4  269   6.761   3.667   3.513  0.0931  0.1604 -0.0344
    3TYR     BB  270   6.219   3.789   4.059 -0.0213 -0.1241 -0.0468
    3TYR    SC1  271   6.157   4.022   4.240  0.1440  0.1532 -0.0413
    3TYR    SC2  272   6.062   4.136   4.465 -0.0776 -0.0597 -0.0221
    3TYR    SC3  273   6.153   4.292   4.264  0.0495  0.1348  0.1782
    1TYR     BB  274   2.744   6.182   2.968  0.0942  0.1546 -0.2006
    1TYR    SC1  275   2.911   6.221   3.229 -0.0791 -0.2441 -0.2972
    1TYR    SC2  276   3.126   6.374   3.288 -0.0752 -0.2282 -0.3518
    1TYR    SC3  277   3.133   6.108   3.331 -0.1187 -0.1994 -0.1588
    2TRP     BB  278   2.537   5.931   2.828 -0.2283  0.5577 -0.3034
    2TRP    SC1  279   2.582   5.985   2.543  0.0801 -0.0302 -0.0137
    2TRP    SC2  280   2.572   5.996   2.274  0.0634 -0.0893 -0.0157
    2TRP    SC3  281   2.529   5.762   2.401 -0.0872 -0.0303  0.0454
    2TRP    SC4  282   2.530   5.770   2.130 -0.1400 -0.0910  0.0430
    3TYR     BB  283   2.389   5.822   2.959 -0.3763  0.0688  0.0452
    3TYR    SC1  284   2.333   5.573   3.119 -0.1913 -0.1962  0.0564
    3TYR    SC2  285   2.329   5.307   3.169 -0.3132 -0.1679  0.2067
    3TYR    SC3  286   2.341   5.483   3.374  0.4046 -0.0590  0.1048
    1TYR     BB  287   3.145   6.498   2.789 -0.0264 -0.1842  0.0084
    1TYR    SC1  288   3.247   6.461   2.485 -0.0353  0.0467  0.0280
    1TYR    SC2  289   3.427   6.402   2.292  0.1794  0.3562  0.1227
    1TYR    SC3  290   3.165   6.427   2.229  0.2116  0.2194 -0.0793
    2TRP     BB  291   3.212   6.764   2.907 -0.2560 -0.1762  0.1606
    2TRP    SC1  292   3.464   6.771   3.039 -0.3269  0.0906  0.1715
    2TRP    SC2  293   3.722   6.728   3.107 -0.2854  0.0291 -0.0163
    2TRP    SC3  294   3.541   6.529   3.131 -0.2402 -0.0388 -0.2174
    2TRP    SC4  295   3.803   6.479   3.173 -0.2527  0.0354 -0.0331
    3TYR     BB  296   3.191   7.076   2.808  0.2777  0.0947  0.2388
    3TYR    SC1  297   3.419   7.226   2.703  0.1117 -0.5230 -0.2984
    3TYR    SC2  298   3.662   7.334   2.660  0.0519 -0.2786 -0.0617
    3TYR    SC3  299   3.454   7.401   2.501  0.0057 -0.0024  0.1088
    1TYR     BB  300   4.664   2.651   3.016  0.0167 -0.0098  0.2445
    1TYR    SC1  301   4.847   2.700   2.776 -0.4003 -0.0066 -0.2972
    1TYR    SC2  302   5.111   2.686   2.724 -0.2756 -0.3007  0.2959
    1TYR    SC3  303   4.949   2.833   2.565  0.2256 -0.1481 -0.1092
    2TRP     BB  304   4.594   2.870   3.186 -0.2540 -0.2193 -0.3318
    2TRP    SC1  305   4.377   2.903   3.379  0.0733 -0.2757 -0.0723
    2TRP    SC2  306   4.255   3.009   3.595  0.0618 -0.1248 -0.1512
    2TRP    SC3  307   4.450   2.826   3.628 -0.0404 -0.2129 -0.0183
    2TRP    SC4  308   4.350   2.955   3.843 -0.0752 -0.1121 -0.0945
    3TYR     BB  309   4.588   3.192   3.046  0.1295 -0.1612 -0.0858
    3TYR    SC1  310   4.831   3.239   2.852  0.0259 -0.0008 -0.0089
    3TYR    SC2  311   4.883   3.301   2.594 -0.0522 -0.1303 -0.0572
    3TYR    SC3  312   5.052   3.381   2.789 -0.1793  0.2862 -0.1068
    1TYR     BB  313   3.490   4.003   4.570  0.0999  0.1089 -0.0151
    1TYR    SC1  314   3.235   3.830   4.621 -0.0563  0.0740 -0.0448
    1TYR    SC2  315   3.009   3.794   4.765  0.0431  0.1124  0.1239
    1TYR    SC3  316   3.088   3.605   4.588 -0.2312  0.1928 -0.0933
    2TRP     BB  317   3.601   4.162   4.830  0.1747  0.2516 -0.1612
    2TRP    SC1  318   3.535   4.463   4.717 -0.1006  0.0092 -0.0261
    2TRP    SC2  319   3.608   4.704   4.620  0.0763 -0.0748 -0.1102
    2TRP    SC3  320   3.726   4.606   4.842  0.2893 -0.2487 -0.2948
    2TRP    SC4  321   3.785   4.855   4.756  0.0042 -0.0752 -0.0144
    3TYR     BB  322   3.823   4.012   4.986 -0.2048  0.1146 -0.1489
    3TYR    SC1  323   3.953   3.741   5.034  0.2508 -0.1737  0.1176
    3TYR    SC2  324   4.028   3.627   5.266  0.5153  0.1077  0.1783
    3TYR    SC3  325   4.172   3.583   5.043  0.3198 -0.0810  0.0853
    1TYR     BB  326   3.917   2.976   3.252 -0.2504  0.1693  0.0191
    1TYR    SC1  327   3.726   3.139   3.016  0.0097 -0.2946  0.0129
    1TYR    SC2  328   3.490   3.263   3.057 -0.0819 -0.5005  0.1282
    1TYR    SC3  329   3.603   3.266   2.812 -0.2108 -0.4132  0.0681
    2TRP     BB  330   4.091   2.761   3.021 -0.0839 -0.0556 -0.0740
    2TRP    SC1  331   4.286   2.890   2.792 -0.3518 -0.0576 -0.1631
    2TRP    SC2  332   4.372   3.081   2.622 -0.3363 -0.1320 -0.2401
    2TRP    SC3  333   4.446   2.824   2.584 -0.1302 -0.1162  0.0206
    2TRP    SC4  334   4.535   3.016   2.416  0.2256 -0.1349  0.1770
    3TYR     BB  335   4.131   2.522   3.036 -0.1374 -0.2482 -0.0850
    3TYR    SC1  336   4.060   2.193   3.031 -0.3861 -0.0516  0.3188
    3TYR    SC2  337   3.859   2.015   3.063 -0.3470 -0.1290  0.1504
    3TYR    SC3  338   4.108   1.928   3.011 -0.2141 -0.0460  0.5927
    1TYR     BB  339   2.263   1.883   3.074  0.2036 -0.0812 -0.0504
    1TYR    SC1  340   2.206   1.881   2.789 -0.3412  0.5270 -0.3822
    1TYR    SC2  341   1.983   1.809   2.652 -0.1638 -0.1540 -0.3586
    1TYR    SC3  342   2.226   1.723   2.570  0.0165 -0.0427  0.0284
    2TRP     BB  343   1.988   1.892   3.218  0.0880 -0.1414 -0.3704
    2TRP    SC1  344   1.811   2.074   3.074 -0.1255 -0.0608 -0.0064
    2TRP    SC2  345   1.684   2.219   2.887  0.0098  0.2651  0.1443
    2TRP    SC3  346   1.948   2.257   2.931  0.0505 -0.0349  0.1866
    2TRP    SC4  347   1.821   2.398   2.737  0.2348  0.1267  0.1798
    3TYR     BB  348   2.021   1.797   3.569 -0.0828 -0.0141  0.2202
    3TYR    SC1  349   2.350   1.794   3.625 -0.1484 -0.0422 -0.1214
    3TYR    SC2  350   2.506   1.829   3.843 -0.0899  0.3323 -0.2136
    3TYR    SC3  351   2.576   1.649   3.655 -0.0834  0.0831  0.0183
    1TYR     BB  352   6.963   4.489   4.063 -0.2326  0.2666  0.0567
    1TYR    SC1  353   6.948   4.377   3.707 -0.2217 -0.1204  0.1419
    1TYR    SC2  354   6.954   4.161   3.545  0.3042 -0.0945  0.1040
    1TYR    SC3  355   6.912   4.406   3.441 -0.2258 -0.1562  0.1383
    2TRP     BB  356   7.044   4.309   4.316  0.2026  0.1254 -0.2129
    2TRP    SC1  357   7.347   4.300   4.276  0.0642 -0.2657  0.2541
    2TRP    SC2  358   7.616   4.295   4.248  0.0459  0.1162 -0.0945
    2TRP    SC3  359   7.460   4.151   4.081  0.0237  0.2967 -0.2342
    2TRP    SC4  360   7.728   4.146   4.053  0.0741 -0.1996  0.1534
    3TYR     BB  361   6.966   4.268   4.611 -0.1160 -0.1040 -0.0868
    3TYR    SC1  362   6.744   4.099   4.683 -0.0203 -0.1892  0.1368
    3TYR    SC2  363   6.497   4.068   4.580 -0.1061  0.3132  0.1624
    3TYR    SC3  364   6.570   3.931   4.802 -0.4006  0.2409  0.2198
    1TYR     BB  365   6.572   2.707   3.121 -0.0251  0.0634  0.1684
    1TYR    SC1  366   6.647   2.625   2.856 -0.0995 -0.1997  0.0861
    1TYR    SC2  367   6.623   2.437   2.664 -0.0314 -0.0037 -0.1188
    1TYR    SC3  368   6.768   2.660   2.617 -0.0600  0.0730  0.1428
    2TRP     BB  369   6.406   2.629   3.408 -0.1018  0.1605  0.1427
    2TRP    SC1  370   6.191   2.804   3.357 -0.1177 -0.2994  0.2459
    2TRP    SC2  371   6.004   2.987   3.294  0.4196  0.2219  0.0581
    2TRP    SC3  372   6.090   2.813   3.107  0.0691 -0.0921  0.1745
    2TRP    SC4  373   5.932   3.020   3.035  0.0137 -0.1565  0.1084
    3TYR     BB  374   6.467   2.422   3.629 -0.1250 -0.0346 -0.0022
    3TYR    SC1  375   6.384   2.162   3.449 -0.1922 -0.0741 -0.0059
    3TYR    SC2  376   6.508   1.951   3.334  0.1889  0.0795  0.1061
    3TYR    SC3  377   6.239   1.968   3.330  0.1696 -0.1804 -0.2961
    1TYR     BB  378   7.679   1.699   3.057  0.0239 -0.0898  0.2692
    1TYR    SC1  379   7.537   1.523   2.858 -0.0755  0.3980  0.0029
    1TYR    SC2  380   7.354   1.491   2.663 -0.1491  0.2027  0.0996
    1TYR    SC3  381   7.409   1.287   2.830  0.1784  0.2479  0.0572
    2TRP     BB  382   7.957   1.876   2.995  0.2367 -0.0632 -0.0072
    2TRP    SC1  383   8.024   2.038   3.237  0.1610  0.1894  0.1299
    2TRP    SC2  384   7.977   2.257   3.390  0.1340  0.1560  0.1703
    2TRP    SC3  385   7.852   2.025   3.446  0.1996  0.1170  0.1578
    2TRP    SC4  386   7.799   2.246   3.592  0.0455  0.1255  0.0908
    3TYR     BB  387   7.925   2.000   2.758 -0.3488 -0.3488  0.2333
    3TYR    SC1  388   8.079   2.010   2.489  0.4456  0.1386  0.1247
    3TYR    SC2  389   8.250   1.875   2.329  0.0762 -0.0709 -0.1108
    3TYR    SC3  390   8.102   2.078   2.228 -0.0076 -0.0661  0.0197
    1TYR     BB  391   4.027   4.949   3.648 -0.0788  0.1515 -0.1095
    1TYR    SC1  392   4.264   5.148   3.526 -0.0416 -0.0413 -0.1100
    1TYR    SC2  393   4.528   5.195   3.495 -0.0130 -0.1474 -0.0365
    1TYR    SC3  394   4.354   5.401   3.511  0.0971 -0.0681  0.1880
    2TRP     BB  395   3.909   4.951   3.886 -0.0541  0.0787  0.3098
    2TRP    SC1  396   3.633   5.023   3.896  0.1690 -0.3268 -0.0952
    2TRP    SC2  397   3.399   5.150   3.938  0.3970  0.0977 -0.0354
    2TRP    SC3  398   3.432   4.995   3.719  0.0512 -0.0073 -0.0204
    2TRP    SC4  399   3.198   5.123   3.759  0.1187  0.0326  0.2756
    3TYR     BB  400   4.009   4.929   4.165 -0.1703  0.0579  0.0690
    3TYR    SC1  401   3.824   5.099   4.348 -0.0581 -0.2576  0.1942
    3TYR    SC2  402   3.806   5.275   4.552 -0.0984 -0.1356  0.0868
    3TYR    SC3  403   3.605   5.255   4.372 -0.0003 -0.1378 -0.0241
    1TYR     BB  404   4.011   3.919   3.545 -0.0942 -0.1788  0.2210
    1TYR    SC1  405   3.708   3.956   3.555 -0.2055  0.0567 -0.1158
    1TYR    SC2  406   3.473   3.876   3.661 -0.3048  0.1373 -0.2698
    1TYR    SC3  407   3.476   4.025   3.436 -0.0961 -0.1584 -0.4719
    2TRP     BB  408   4.096   4.167   3.337  0.0511 -0.0865  0.0397
    2TRP    SC1  409   3.900   4.157   3.133 -0.1463  0.1362  0.0642
    2TRP    SC2  410   3.667   4.110   3.004 -0.1082  0.0046  0.0408
    2TRP    SC3  411   3.832   3.905   3.062  0.1951  0.1360 -0.3097
    2TRP    SC4  412   3.599   3.858   2.936  0.2651  0.0073 -0.3933
    3TYR     BB  413   4.441   4.167   3.232  0.1046  0.1060 -0.0071
    3TYR    SC1  414   4.529   4.344   3.029 -0.0024  0.0201  0.0342
    3TYR    SC2  415   4.522   4.496   2.806 -0.0670 -0.0412 -0.0065
    3TYR    SC3  416   4.747   4.361   2.872 -0.1180 -0.2057 -0.1594
    1TYR     BB  417   6.955   2.655   3.439  0.1535 -0.1747 -0.0749
    1TYR    SC1  418   7.239   2.776   3.384 -0.0146  0.3533 -0.0148
    1TYR    SC2  419   7.493   2.803   3.471  0.0411 -0.2057  0.0455
    1TYR    SC3  420   7.433   2.855   3.212  0.1939  0.0009  0.0471
    2TRP     BB  421   6.985   2.378   3.177  0.3162 -0.2789 -0.0970
    2TRP    SC1  422   7.074   2.447   2.873 -0.0319 -0.1471  0.1363
    2TRP    SC2  423   7.178   2.393   2.629 -0.1346 -0.1422  0.0912
    2TRP    SC3  424   6.976   2.243   2.728 -0.0918 -0.1459  0.1749
    2TRP    SC4  425   7.080   2.187   2.485 -0.2456 -0.0931  0.0948
    3TYR     BB  426   6.885   2.165   3.234 -0.1240 -0.0957  0.1380
    3TYR    SC1  427   6.906   1.923   3.023  0.3374 -0.1374  0.3481
    3TYR    SC2  428   6.719   1.739   2.960  0.2756 -0.0898  0.3900
    3TYR    SC3  429   6.940   1.766   2.807  0.0239  0.1783  0.0525
    1TYR     BB  430  -2.638   2.755   3.307 -0.1464 -0.1784  0.0596
    1TYR    SC1  431  -2.892   2.605   3.162 -0.1778  0.0160  0.0051
    1TYR    SC2  432  -3.103   2.541   3.005  0.1796  0.1566 -0.5656
    1TYR    SC3  433  -2.865   2.418   2.969  0.2638  0.1510 -0.0750
    2TRP     BB  434  -2.740   2.646   3.635 -0.0490 -0.4006  0.1354
    2TRP    SC1  435  -2.589   2.726   3.894  0.1880 -0.2842  0.3758
    2TRP    SC2  436  -2.509   2.811   4.137  0.1425  0.4390  0.1662
    2TRP    SC3  437  -2.326   2.763   3.944  0.1540  0.2993  0.2103
    2TRP    SC4  438  -2.248   2.864   4.181  0.1764  0.2279  0.2338
    3TYR     BB  439  -2.987   2.542   3.685  0.1686 -0.1106  0.2548
    3TYR    SC1  440  -3.111   2.634   3.921  0.1296 -0.0455  0.2021
    3TYR    SC2  441  -3.290   2.559   4.109 -0.2485  0.1317 -0.0722
    3TYR    SC3  442  -3.065   2.690   4.181 -0.1048 -0.2905  0.3027
    1TYR     BB  443  -1.541   3.229   4.466 -0.0316  0.1637 -0.0179
    1TYR    SC1  444  -1.787   3.194   4.606  0.0820  0.0313 -0.0976
    1TYR    SC2  445  -1.958   3.147   4.810  0.2996 -0.4280 -0.0056
    1TYR    SC3  446  -2.050   3.159   4.557  0.0663 -0.1332  0.0869
    2TRP     BB  447  -1.570   2.856   4.327  0.0469 -0.1047 -0.1707
    2TRP    SC1  448  -1.426   2.908   4.084  0.2863 -0.2031 -0.0256
    2TRP    SC2  449  -1.369   3.031   3.850  0.1425  0.0817  0.0818
    2TRP    SC3  450  -1.234   3.098   4.074  0.2350 -0.1430  0.0973
    2TRP    SC4  451  -1.177   3.220   3.840  0.2152  0.0148  0.1739
    3TYR     BB  452  -1.809   2.706   4.421  0.1353 -0.0013 -0.2233
    3TYR    SC1  453  -1.786   2.477   4.650  0.1567  0.0971 -0.0292
    3TYR    SC2  454  -1.977   2.306   4.733  0.1869  0.0293 -0.0978
    3TYR    SC3  455  -1.747   2.329   4.872  0.2047 -0.0252 -0.1178
    1TYR     BB  456   3.513   2.575   3.893 -0.0634 -0.3139 -0.0144
    1TYR    SC1  457   3.401   2.820   3.683 -0.1764  0.2844  0.2567
    1TYR    SC2  458   3.478   2.913   3.441 -0.1807  0.1299  0.1940
    1TYR    SC3  459   3.340   3.073   3.610 -0.3449  0.1793  0.0172
    2TRP     BB  460   3.306   2.396   4.041  0.1293 -0.0790 -0.0019
    2TRP    SC1  461   3.404   2.258   4.332 -0.0194 -0.2605 -0.2573
    2TRP    SC2  462   3.544   2.161   4.542 -0.0935 -0.1285 -0.1434
    2TRP    SC3  463   3.600   2.078   4.290  0.0533 -0.2254 -0.0802
    2TRP    SC4  464   3.735   1.974   4.501  0.1825  0.1098  0.0107
    3TYR     BB  465   3.075   2.300   4.015  0.1776 -0.2173  0.5024
    3TYR    SC1  466   2.984   1.982   4.114 -0.1121 -0.1119 -0.0437
    3TYR    SC2  467   2.746   1.875   4.182 -0.2732  0.1672 -0.1451
    3TYR    SC3  468   2.925   1.729   4.041 -0.2322 -0.1674  0.2294
    1TYR     BB  469   7.235   3.853   4.380 -0.0885 -0.0152  0.1307
    1TYR    SC1  470   7.118   3.804   4.114  0.0289  0.1225  0.1183
    1TYR    SC2  471   7.066   3.714   3.865 -0.1744 -0.1051  0.2366
    1TYR    SC3  472   7.027   3.974   3.926 -0.5211 -0.1271  0.1345
    2TRP     BB  473   7.477   3.718   4.419  0.1019  0.1543  0.3398
    2TRP    SC1  474   7.517   3.621   4.700  0.1322  0.2048  0.3248
    2TRP    SC2  475   7.553   3.471   4.922  0.0860 -0.1645  0.0916
    2TRP    SC3  476   7.755   3.503   4.747  0.0968  0.0552  0.1413
    2TRP    SC4  477   7.794   3.363   4.975  0.2230  0.1773  0.1970
    3TYR     BB  478   7.718   3.635   4.239  0.0495  0.0615 -0.3380
    3TYR    SC1  479   7.669   3.683   3.924 -0.0168 -0.2449  0.0090
    3TYR    SC2  480   7.637   3.597   3.670  0.0452  0.2408 -0.1764
    3TYR    SC3  481   7.522   3.828   3.750 -0.0776  0.0360  0.2826
    1TYR     BB  482   3.067   7.084   3.847  0.2776  0.3760 -0.0718
    1TYR    SC1  483   3.175   6.946   3.590  0.1661 -0.2757  0.0918
    1TYR    SC2  484   3.268   6.733   3.451  0.0539 -0.0808 -0.3000
    1TYR    SC3  485   3.052   6.869   3.363  0.0814  0.1585 -0.0215
    2TRP     BB  486   2.875   6.889   4.017  0.1508  0.0031  0.4383
    2TRP    SC1  487   2.856   6.664   3.784  0.2635 -0.1331  0.0382
    2TRP    SC2  488   2.805   6.522   3.560 -0.1265  0.3247 -0.1873
    2TRP    SC3  489   2.623   6.531   3.758  0.2259 -0.0968  0.1824
    2TRP    SC4  490   2.581   6.372   3.544 -0.0739  0.2245 -0.0115
    3TYR     BB  491   2.708   6.998   4.273  0.0832 -0.0925 -0.2193
    3TYR    SC1  492   2.564   6.835   4.475  0.3272  0.1274 -0.0992
    3TYR    SC2  493   2.517   6.813   4.740  0.0244  0.0843 -0.1516
    3TYR    SC3  494   2.449   6.611   4.575  0.1645  0.1322 -0.2701
    1TYR     BB  495   3.824   7.432   3.212  0.3187  0.0547  0.1756
    1TYR    SC1  496   3.944   7.244   3.016  0.0237 -0.2670 -0.0519
    1TYR    SC2  497   4.078   7.193   2.787 -0.0071 -0.1909 -0.0879
    1TYR    SC3  498   4.120   7.041   3.006  0.2371 -0.0881 -0.0589
    2TRP     BB  499   3.875   7.698   3.360  0.0289  0.0896  0.0380
    2TRP    SC1  500   3.846   7.938   3.183 -0.4066 -0.0114 -0.1376
    2TRP    SC2  501   3.936   8.135   3.021 -0.0706 -0.1004 -0.0665
    2TRP    SC3  502   3.843   7.904   2.915 -0.1169 -0.0480 -0.1401
    2TRP    SC4  503   3.974   8.082   2.758 -0.2706  0.0742 -0.1342
    3TYR     BB  504   4.149   7.653   3.523 -0.0356 -0.0112  0.0842
    3TYR    SC1  505   4.369   7.854   3.656  0.0989  0.0650 -0.1913
    3TYR    SC2  506   4.359   8.071   3.817 -0.1842  0.1196 -0.2774
    3TYR    SC3  507   4.598   7.970   3.742 -0.0427  0.0751  0.1963
    1TYR     BB  508   4.060   4.077   5.419 -0.0075  0.0589 -0.2024
    1TYR    SC1  509   3.992   3.900   5.624  0.0986  0.2772  0.0239
    1TYR    SC2  510   4.064   3.657   5.715  0.0510  0.2123 -0.1090
    1TYR    SC3  511   3.890   3.807   5.856 -0.2064  0.0132 -0.2030
    2TRP     BB  512   4.297   4.261   5.480 -0.2778  0.1498  0.0215
    2TRP    SC1  513   4.339   4.139   5.779 -0.2584 -0.3448 -0.0465
    2TRP    SC2  514   4.292   4.078   6.038 -0.2361 -0.1771 -0.0025
    2TRP    SC3  515   4.186   4.302   5.930  0.1975  0.0502  0.0159
    2TRP    SC4  516   4.143   4.245   6.190 -0.0140  0.0440 -0.0183
    3TYR     BB  517   4.426   4.597   5.576  0.1828  0.1824 -0.1418
    3TYR    SC1  518   4.578   4.525   5.797 -0.1840  0.2258  0.1723
    3TYR    SC2  519   4.832   4.534   5.886  0.0155 -0.2018 -0.2960
    3TYR    SC3  520   4.638   4.433   6.043  0.0316  0.4854  0.2220
    1TYR     BB  521   7.991   1.266   2.892  0.2641  0.1301 -0.3393
    1TYR    SC1  522   7.766   1.175   3.133  0.2511 -0.0644 -0.2439
    1TYR    SC2  523   7.694   1.061   3.368  0.2938  0.0248 -0.1860
    1TYR    SC3  524   7.538   1.251   3.256  0.2070 -0.1091 -0.2980
    2TRP     BB  525   8.242   1.256   3.088  0.1482  0.1163 -0.1262
    2TRP    SC1  526   8.198   0.992   3.295 -0.0556 -0.1243 -0.3464
    2TRP    SC2  527   8.088   0.765   3.390 -0.0894 -0.0994 -0.3260
    2TRP    SC3  528   8.156   0.783   3.131  0.0642 -0.1918 -0.2939
    2TRP    SC4  529   8.050   0.554   3.226 -0.4652 -0.0003 -0.3782
    3TYR     BB  530   8.115   1.485   3.370  0.0170 -0.0071  0.0768
    3TYR    SC1  531   7.966   1.290   3.578 -0.4244  0.1319  0.0526
    3TYR    SC2  532   7.837   1.124   3.747  0.1202 -0.2291  0.1486
    3TYR    SC3  533   8.098   1.084   3.694  0.1768  0.3846 -0.1353
    1TYR     BB  534   4.436   4.883   3.937  0.0987 -0.0829 -0.0284
    1TYR    SC1  535   4.399   5.177   3.979  0.2367  0.1277  0.2520
    1TYR    SC2  536   4.278   5.416   4.012  0.1572  0.1128  0.0861
    1TYR    SC3  537   4.529   5.404   3.915  0.1290  0.1260  0.0106
    2TRP     BB  538   4.621   4.751   4.127 -0.1012 -0.1437  0.0613
    2TRP    SC1  539   4.795   4.524   4.061 -0.0044 -0.0408 -0.0735
    2TRP    SC2  540   4.991   4.342   4.023 -0.0080 -0.0592 -0.0041
    2TRP    SC3  541   5.021   4.594   3.930 -0.0405 -0.1185 -0.1789
    2TRP    SC4  542   5.231   4.424   3.928  0.0668 -0.0036  0.2239
    3TYR     BB  543   4.486   4.818   4.409  0.0004  0.0983 -0.0199
    3TYR    SC1  544   4.452   5.113   4.421  0.1300  0.2294  0.0713
    3TYR    SC2  545   4.252   5.284   4.483 -0.0155  0.1479 -0.1558
    3TYR    SC3  546   4.494   5.380   4.414 -0.0367  0.2542 -0.0850
    1TYR     BB  547  -0.247   2.183   3.116  0.0041  0.3059  0.1752
    1TYR    SC1  548  -0.101   2.013   2.954  0.1178  0.0934 -0.1862
    1TYR    SC2  549   0.003   1.764   2.949  0.3001  0.1649 -0.0915
    1TYR    SC3  550   0.102   1.954   2.786  0.4681  0.2889  0.1467
    2TRP     BB  551  -0.081   2.334   3.398 -0.0862  0.0368  0.1621
    2TRP    SC1  552   0.094   2.128   3.511  0.3139  0.4017 -0.3420
    2TRP    SC2  553   0.268   1.928   3.566 -0.3797 -0.0596  0.5219
    2TRP    SC3  554   0.063   1.886   3.394 -0.1163  0.2096  0.1191
    2TRP    SC4  555   0.259   1.701   3.418 -0.0638  0.2459 -0.0113
    3TYR     BB  556  -0.038   2.684   3.448 -0.0615 -0.0574 -0.0572
    3TYR    SC1  557   0.048   2.755   3.180  0.2880 -0.3236 -0.1047
    3TYR    SC2  558  -0.082   2.752   2.943  0.1778 -0.0929 -0.0509
    3TYR    SC3  559   0.162   2.867   2.962 -0.0202  0.3379  0.0413
    1TYR     BB  560   4.974   2.448   3.987 -0.0352  0.1534  0.0916
    1TYR    SC1  561   4.936   2.530   4.286 -0.1143  0.2087 -0.0143
    1TYR    SC2  562   4.880   2.694   4.493  0.0956  0.1958  0.0559
    1TYR    SC3  563   4.811   2.433   4.504  0.2893  0.1481  0.2016
    2TRP     BB  564   4.787   2.477   3.732 -0.4520  0.0124 -0.3152
    2TRP    SC1  565   4.527   2.322   3.790 -0.2064  0.1028  0.0218
    2TRP    SC2  566   4.366   2.121   3.869  0.0619 -0.0425  0.2235
    2TRP    SC3  567   4.587   2.067   3.724  0.0508  0.1280  0.1403
    2TRP    SC4  568   4.423   1.866   3.797  0.1530  0.0179  0.0736
    3TYR     BB  569   4.894   2.589   3.473  0.1271 -0.1694  0.3461
    3TYR    SC1  570   5.086   2.433   3.266  0.0812 -0.1500 -0.0021
    3TYR    SC2  571   5.023   2.317   3.031  0.1539 -0.0434 -0.0755
    3TYR    SC3  572   5.268   2.423   3.068  0.0461  0.2088 -0.0607
    1TYR     BB  573   0.576   6.058   3.024  0.2824 -0.0499  0.0910
    1TYR    SC1  574   0.416   5.899   2.808 -0.1915  0.1066 -0.0216
    1TYR    SC2  575   0.276   5.673   2.856  0.2523 -0.1300  0.2497
    1TYR    SC3  576   0.380   5.719   2.610 -0.0338 -0.0984  0.1299
    2TRP     BB  577   0.896   6.203   2.990  0.1916 -0.1572  0.0184
    2TRP    SC1  578   0.907   6.256   3.318 -0.0592 -0.1086 -0.0645
    2TRP    SC2  579   0.911   6.209   3.584 -0.1052 -0.1810 -0.0763
    2TRP    SC3  580   1.142   6.221   3.446 -0.0584  0.1686  0.0189
    2TRP    SC4  581   1.143   6.145   3.704 -0.0951 -0.1163 -0.0605
    3TYR     BB  582   1.021   6.086   2.717 -0.0362  0.1874  0.4514
    3TYR    SC1  583   0.893   5.866   2.600 -0.0452 -0.1170  0.1726
    3TYR    SC2  584   0.788   5.746   2.381  0.1448  0.1132 -0.0528
    3TYR    SC3  585   0.829   5.604   2.607 -0.2828 -0.0719 -0.0798
    1TYR     BB  586   8.087   3.814   5.407 -0.0161 -0.1420 -0.1811
    1TYR    SC1  587   8.156   4.077   5.410  0.0859  0.0967  0.1078
    1TYR    SC2  588   8.178   4.318   5.529 -0.1515  0.3562 -0.3389
    1TYR    SC3  589   8.387   4.216   5.392  0.0759  0.1194  0.1520
    2TRP     BB  590   8.113   3.616   5.253 -0.1448  0.1123 -0.1071
    2TRP    SC1  591   8.010   3.352   5.385 -0.0223  0.2243  0.0887
    2TRP    SC2  592   7.945   3.092   5.420 -0.0305  0.2370  0.1679
    2TRP    SC3  593   8.200   3.172   5.451  0.0551  0.1628 -0.2734
    2TRP    SC4  594   8.130   2.920   5.515  0.0485  0.2318  0.0073
    3TYR     BB  595   8.226   3.676   4.972  0.0056  0.2213 -0.0854
    3TYR    SC1  596   8.322   3.976   4.927 -0.0387 -0.1838 -0.0991
    3TYR    SC2  597   8.553   4.084   4.838  0.0039 -0.1828  0.0094
    3TYR    SC3  598   8.362   4.242   4.947  0.1633 -0.2363  0.3835
    1TYR     BB  599   3.194   5.479   2.682  0.2128  0.0044 -0.2930
    1TYR    SC1  600   3.194   5.225   2.571 -0.1011  0.2925  0.3037
    1TYR    SC2  601   3.068   5.049   2.410  0.1333  0.1386  0.2817
    1TYR    SC3  602   3.332   5.022   2.458  0.2210  0.5997  0.1176
    2TRP     BB  603   2.892   5.598   2.861 -0.0592  0.0372  0.0167
    2TRP    SC1  604   2.674   5.403   2.802  0.0303  0.0589  0.2142
    2TRP    SC2  605   2.448   5.303   2.693  0.0287 -0.0880  0.3472
    2TRP    SC3  606   2.670   5.331   2.542 -0.0464 -0.0452  0.2431
    2TRP    SC4  607   2.448   5.218   2.436 -0.1291  0.0688  0.2932
    3TYR     BB  608   2.886   5.687   3.130 -0.0132 -0.2369  0.0776
    3TYR    SC1  609   2.762   5.821   3.358 -0.0743 -0.0793 -0.1498
    3TYR    SC2  610   2.761   5.893   3.618 -0.2320 -0.1772 -0.1213
    3TYR    SC3  611   2.551   5.957   3.459 -0.1327 -0.1100 -0.2280
    1TYR     BB  612   3.047   4.791   3.396 -0.1803 -0.1204 -0.1474
    1TYR    SC1  613   2.916   4.603   3.191 -0.3874  0.1928  0.0220
    1TYR    SC2  614   2.695   4.454   3.147 -0.3327  0.0993  0.0602
    1TYR    SC3  615   2.842   4.541   2.938 -0.5981  0.4625  0.0107
    2TRP     BB  616   2.753   4.989   3.370  0.0618  0.0925  0.0022
    2TRP    SC1  617   2.577   4.921   3.137  0.2069 -0.3442 -0.1626
    2TRP    SC2  618   2.391   4.862   2.949  0.0573 -0.1185 -0.0909
    2TRP    SC3  619   2.360   4.774   3.202  0.0977 -0.1586 -0.0996
    2TRP    SC4  620   2.154   4.761   3.029 -0.0141  0.1177  0.0055
    3TYR     BB  621   2.810   5.283   3.348 -0.1678 -0.3064  0.0569
    3TYR    SC1  622   2.723   5.420   3.575 -0.2142 -0.1212  0.0808
    3TYR    SC2  623   2.803   5.467   3.829  0.0570 -0.1232 -0.0005
    3TYR    SC3  624   2.543   5.494   3.762 -0.0319 -0.2030  0.2950
    1TYR     BB  625   3.442   7.674   3.027  0.0735  0.0231 -0.0907
    1TYR    SC1  626   3.436   7.924   3.211 -0.0225 -0.0512 -0.2786
    1TYR    SC2  627   3.441   7.988   3.473  0.1435 -0.2209 -0.2385
    1TYR    SC3  628   3.263   8.107   3.310 -0.1226 -0.2825 -0.0051
    2TRP     BB  629   3.127   7.545   2.991 -0.2572 -0.0282  0.2407
    2TRP    SC1  630   2.939   7.349   3.090 -0.1081  0.0625 -0.1386
    2TRP    SC2  631   2.788   7.126   3.080 -0.0024 -0.0183  0.0254
    2TRP    SC3  632   2.678   7.367   3.027 -0.1137 -0.1092 -0.1692
    2TRP    SC4  633   2.528   7.142   3.007 -0.0202 -0.1935  0.0445
    3TYR     BB  634   2.997   7.784   2.913 -0.3125 -0.1941  0.2479
    3TYR    SC1  635   2.732   7.827   3.072 -0.0549 -0.2346  0.1887
    3TYR    SC2  636   2.611   7.769   3.305 -0.0805 -0.0901  0.2123
    3TYR    SC3  637   2.493   7.938   3.131  0.0432 -0.0217  0.1944
    1TYR     BB  638   3.394   7.219   3.286  0.0495  0.0342 -0.1244
    1TYR    SC1  639   3.591   7.044   3.427 -0.0074  0.1700  0.1195
    1TYR    SC2  640   3.711   6.828   3.537  0.1354  0.1360 -0.0941
    1TYR    SC3  641   3.859   7.042   3.464 -0.0251  0.3939  0.2915
    2TRP     BB  642   3.295   7.469   3.479  0.3494  0.1923  0.0788
    2TRP    SC1  643   3.557   7.478   3.632  0.0845  0.0916  0.0184
    2TRP    SC2  644   3.793   7.428   3.753  0.1428 -0.1367 -0.1822
    2TRP    SC3  645   3.574   7.285   3.820 -0.0088  0.2426  0.1869
    2TRP    SC4  646   3.810   7.231   3.937  0.0550 -0.0243 -0.0511
    3TYR     BB  647   3.051   7.658   3.503  0.3423  0.0807 -0.0619
    3TYR    SC1  648   2.877   7.632   3.713 -0.0504 -0.0435 -0.1511
    3TYR    SC2  649   2.768   7.480   3.908 -0.1227  0.1765 -0.0158
    3TYR    SC3  650   2.612   7.644   3.761 -0.0295  0.2103 -0.0784
    1TYR     BB  651   3.095   2.963   2.968 -0.2642 -0.0031 -0.0865
    1TYR    SC1  652   2.880   2.990   2.787 -0.0827 -0.0989  0.2011
    1TYR    SC2  653   2.619   3.025   2.731 -0.0420 -0.1089 -0.0121
    1TYR    SC3  654   2.782   2.921   2.545  0.1151 -0.1056  0.1205
    2TRP     BB  655   2.985   2.997   3.255 -0.2367  0.0550  0.1229
    2TRP    SC1  656   3.027   2.735   3.422  0.0243  0.0082  0.0228
    2TRP    SC2  657   3.063   2.510   3.567 -0.0457 -0.1295 -0.1689
    2TRP    SC3  658   3.216   2.557   3.348 -0.1542 -0.0829 -0.2362
    2TRP    SC4  659   3.244   2.326   3.485  0.1903  0.0492 -0.0659
    3TYR     BB  660   2.926   3.251   3.369 -0.3314  0.1485 -0.0786
    3TYR    SC1  661   3.149   3.507   3.338  0.0865  0.3118  0.0487
    3TYR    SC2  662   3.286   3.710   3.223 -0.3597  0.4209 -0.3323
    3TYR    SC3  663   3.044   3.756   3.334 -0.2615  0.1710  0.0049
    1TYR     BB  664  -1.848   2.647   3.905  0.0350 -0.0324  0.0417
    1TYR    SC1  665  -1.838   2.942   3.931 -0.6121 -0.0445 -0.0293
    1TYR    SC2  666  -1.791   3.188   3.831  0.0132 -0.0881  0.1047
    1TYR    SC3  667  -1.855   3.157   4.091  0.0649 -0.0728  0.1193
    2TRP     BB  668  -1.662   2.449   3.745  0.0277  0.0267  0.0550
    2TRP    SC1  669  -1.435   2.576   3.581  0.0840  0.0097  0.2140
    2TRP    SC2  670  -1.244   2.727   3.464 -0.0411 -0.0337 -0.0570
    2TRP    SC3  671  -1.213   2.460   3.480  0.1129 -0.0019  0.2909
    2TRP    SC4  672  -1.038   2.607   3.338 -0.0481 -0.0933 -0.0126
    3TYR     BB  673  -1.635   2.175   3.795 -0.2334 -0.1774  0.0828
    3TYR    SC1  674  -1.463   2.076   3.523  0.1943  0.1631  0.1524
    3TYR    SC2  675  -1.327   2.042   3.292  0.3509 -0.0422  0.2706
    3TYR    SC3  676  -1.522   1.868   3.361 -0.1428  0.3669 -0.0016
    1TYR     BB  677   8.424   3.085   3.707 -0.0609  0.2932  0.0621
    1TYR    SC1  678   8.394   3.026   3.976  0.2811 -0.2605  0.0434
    1TYR    SC2  679   8.365   3.118   4.227  0.0877  0.1715 -0.1233
    1TYR    SC3  680   8.270   2.875   4.161 -0.1369  0.1793  0.1488
    2TRP     BB  681   8.297   2.937   3.380 -0.0876  0.0706 -0.0596
    2TRP    SC1  682   8.393   3.196   3.258 -0.1638  0.2014 -0.0867
    2TRP    SC2  683   8.500   3.440   3.213  0.0866  0.0595 -0.2945
    2TRP    SC3  684   8.659   3.222   3.223 -0.1476 -0.1141 -0.2385
    2TRP    SC4  685   8.760   3.460   3.144  0.2128 -0.1484  0.0858
    3TYR     BB  686   8.072   2.730   3.246  0.2525 -0.4619  0.1209
    3TYR    SC1  687   7.943   2.839   2.990  0.0368  0.0410 -0.2130
    3TYR    SC2  688   7.930   2.863   2.722 -0.3276  0.1424 -0.1915
    3TYR    SC3  689   7.743   2.981   2.877  0.0919  0.4124  0.1317
    1TYR     BB  690  -1.033   1.760   3.505  0.0788 -0.0350 -0.2974
    1TYR    SC1  691  -1.021   2.011   3.695  0.2917 -0.1057  0.2018
    1TYR    SC2  692  -0.906   2.253   3.660  0.1098 -0.0573 -0.1163
    1TYR    SC3  693  -1.100   2.222   3.845 -0.0627  0.1171 -0.2621
    2TRP     BB  694  -0.866   1.865   3.243  0.3088  0.0237 -0.0265
    2TRP    SC1  695  -0.593   1.710   3.237 -0.2214 -0.6011 -0.3451
    2TRP    SC2  696  -0.346   1.690   3.344 -0.2549 -0.0145 -0.1073
    2TRP    SC3  697  -0.547   1.535   3.436 -0.0049 -0.4454 -0.2535
    2TRP    SC4  698  -0.305   1.529   3.557 -0.1219  0.2489  0.0722
    3TYR     BB  699  -0.865   2.219   3.131 -0.0148  0.3132  0.1431
    3TYR    SC1  700  -0.657   2.435   3.204  0.0539  0.0683  0.3514
    3TYR    SC2  701  -0.504   2.549   3.394 -0.0539  0.3222  0.2933
    3TYR    SC3  702  -0.487   2.636   3.140  0.1364 -0.0573  0.1677
    1TYR     BB  703   8.161   3.499   3.619  0.1898 -0.0590  0.2124
    1TYR    SC1  704   7.970   3.327   3.453 -0.0215 -0.0968  0.1142
    1TYR    SC2  705   7.962   3.225   3.204 -0.0606  0.0565  0.0510
    1TYR    SC3  706   7.783   3.143   3.389 -0.4560  0.4048 -0.1570
    2TRP     BB  707   8.114   3.508   3.934  0.3838  0.1173  0.0386
    2TRP    SC1  708   7.961   3.299   4.033  0.3409 -0.1075 -0.2590
    2TRP    SC2  709   7.788   3.118   4.135  0.1501  0.2975  0.1918
    2TRP    SC3  710   7.765   3.197   3.877 -0.3003  0.2862  0.2177
    2TRP    SC4  711   7.602   3.005   3.975 -0.0359  0.1837  0.4780
    3TYR     BB  712   8.399   3.557   4.071  0.0146 -0.1341  0.0514
    3TYR    SC1  713   8.489   3.832   3.954 -0.0474  0.2952  0.0117
    3TYR    SC2  714   8.674   3.967   3.809 -0.2678  0.2510 -0.3239
    3TYR    SC3  715   8.448   4.091   3.887 -0.1912  0.2479 -0.0864
    1TYR     BB  716   7.075   3.350   4.737 -0.0048 -0.1130  0.3072
    1TYR    SC1  717   7.309   3.158   4.638  0.0529  0.0007  0.1684
    1TYR    SC2  718   7.492   3.199   4.442 -0.0219  0.1305  0.1245
    1TYR    SC3  719   7.569   3.099   4.680  0.0886  0.0812  0.0687
    2TRP     BB  720   6.834   3.323   4.598 -0.0592  0.2490 -0.2106
    2TRP    SC1  721   6.787   3.093   4.403  0.0563  0.1178 -0.0733
    2TRP    SC2  722   6.781   2.877   4.241  0.0017  0.0817 -0.0234
    2TRP    SC3  723   6.954   2.886   4.447 -0.1913 -0.0438  0.1510
    2TRP    SC4  724   6.944   2.667   4.289  0.1349  0.1520 -0.1614
    3TYR     BB  725   6.550   3.408   4.749 -0.2715 -0.3471 -0.0047
    3TYR    SC1  726   6.356   3.588   4.653  0.0780 -0.1288  0.0114
    3TYR    SC2  727   6.139   3.653   4.505 -0.3002 -0.4087  0.4112
    3TYR    SC3  728   6.169   3.755   4.753  0.4105  0.1905  0.1241
    1TYR     BB  729   1.691   2.641   3.882  0.1236  0.1251  0.0209
    1TYR    SC1  730   1.681   2.363   3.757 -0.3228 -0.2808  0.0199
    1TYR    SC2  731   1.795   2.219   3.560  0.0013 -0.1697  0.1177
    1TYR    SC3  732   1.687   2.094   3.774 -0.2897 -0.2875 -0.0897
    2TRP     BB  733   1.538   2.894   3.737 -0.1727 -0.0399  0.2033
    2TRP    SC1  734   1.526   3.116   3.954  0.3551  0.2169  0.0214
    2TRP    SC2  735   1.532   3.380   4.008 -0.1176  0.2950 -0.2367
    2TRP    SC3  736   1.452   3.205   4.198  0.0358  0.3513 -0.1174
    2TRP    SC4  737   1.455   3.470   4.250 -0.1636  0.3911 -0.2861
    3TYR     BB  738   1.545   3.045   3.417 -0.1793 -0.1668  0.1725
    3TYR    SC1  739   1.822   3.030   3.261 -0.2825  0.2253  0.0859
    3TYR    SC2  740   2.064   3.147   3.238 -0.3028  0.2446 -0.0398
    3TYR    SC3  741   1.908   3.116   3.020 -0.2436 -0.1366 -0.0355
    1TYR     BB  742  -1.392   2.428   4.177  0.2794 -0.0538 -0.0953
    1TYR    SC1  743  -1.126   2.584   4.088  0.1350 -0.1510 -0.0358
    1TYR    SC2  744  -1.021   2.684   3.861  0.3001 -0.2070  0.0137
    1TYR    SC3  745  -0.940   2.779   4.100 -0.0052 -0.0207  0.0488
    2TRP     BB  746  -1.241   2.427   4.540  0.1666 -0.0457 -0.0250
    2TRP    SC1  747  -1.081   2.640   4.602  0.0613 -0.0230  0.0610
    2TRP    SC2  748  -0.859   2.791   4.570  0.1069 -0.0877  0.0703
    2TRP    SC3  749  -1.104   2.902   4.539  0.1413 -0.1078 -0.3627
    2TRP    SC4  750  -0.882   3.050   4.498  0.2160 -0.0621  0.1271
    3TYR     BB  751  -1.293   2.100   4.768  0.2405 -0.1918  0.0087
    3TYR    SC1  752  -1.517   1.973   4.582 -0.0233 -0.2588  0.0253
    3TYR    SC2  753  -1.649   2.002   4.347  0.0817 -0.0675 -0.0129
    3TYR    SC3  754  -1.786   1.949   4.574 -0.0394 -0.0695 -0.0855
    1TYR     BB  755  -1.932   2.611   3.095  0.0503  0.0513  0.3501
    1TYR    SC1  756  -1.876   2.901   3.238  0.0375 -0.0516  0.1484
    1TYR    SC2  757  -1.746   2.924   3.473 -0.0998  0.1189  0.2109
    1TYR    SC3  758  -1.868   3.138   3.366 -0.3147 -0.0322  0.1463
    2TRP     BB  759  -1.798   2.307   3.266  0.2388 -0.0167  0.1037
    2TRP    SC1  760  -1.537   2.369   3.184  0.1018  0.0703  0.2592
    2TRP    SC2  761  -1.306   2.392   3.046  0.1369 -0.0051  0.3043
    2TRP    SC3  762  -1.458   2.611   3.093 -0.0620 -0.0267 -0.1709
    2TRP    SC4  763  -1.226   2.635   2.957 -0.1466 -0.1230 -0.3349
    3TYR     BB  764  -2.065   2.055   3.217 -0.4199 -0.1345 -0.2022
    3TYR    SC1  765  -2.260   2.208   3.006 -0.5287 -0.2181 -0.1898
    3TYR    SC2  766  -2.411   2.428   2.967  0.0313  0.2292 -0.0199
    3TYR    SC3  767  -2.211   2.369   2.795  0.1431  0.0799  0.1576
    1TYR     BB  768   3.936   8.160   3.673  0.0021  0.0324 -0.0051
    1TYR    SC1  769   3.794   8.330   3.453  0.0141 -0.1965 -0.1738
    1TYR    SC2  770   3.620   8.350   3.247 -0.2810 -0.1791  0.0693
    1TYR    SC3  771   3.693   8.571   3.384  0.0061 -0.1736 -0.0829
    2TRP     BB  772   3.867   7.922   3.869  0.1512 -0.1107 -0.1978
    2TRP    SC1  773   3.543   7.903   3.940 -0.3222  0.1058  0.0703
    2TRP    SC2  774   3.312   7.771   3.891 -0.1748 -0.1879  0.1411
    2TRP    SC3  775   3.494   7.669   4.063  0.2306 -0.2213 -0.2822
    2TRP    SC4  776   3.258   7.543   4.023  0.1413 -0.2300  0.2089
    3TYR     BB  777   4.043   7.788   4.161 -0.1543 -0.0095 -0.3555
    3TYR    SC1  778   4.167   7.542   4.047  0.0482  0.1037  0.2614
    3TYR    SC2  779   4.398   7.487   3.918 -0.2517 -0.3836 -0.1159
    3TYR    SC3  780   4.290   7.305   4.086 -0.3380 -0.1342  0.1089
    1TYR     BB  781   8.424   2.410   3.320  0.2575 -0.0478 -0.0516
    1TYR    SC1  782   8.632   2.295   3.526 -0.1535 -0.0139  0.4425
    1TYR    SC2  783   8.708   2.296   3.785  0.3431 -0.2840  0.3142
    1TYR    SC3  784   8.889   2.243   3.592  0.0446  0.1686 -0.1187
    2TRP     BB  785   8.411   2.314   3.079 -0.0722 -0.0716 -0.1242
    2TRP    SC1  786   8.445   2.026   2.990  0.0262  0.0456  0.1490
    2TRP    SC2  787   8.421   1.758   2.994  0.0627  0.0408  0.0640
    2TRP    SC3  788   8.392   1.892   2.762 -0.0076  0.1156  0.1155
    2TRP    SC4  789   8.328   1.631   2.774  0.0327  0.1018  0.0413
    3TYR     BB  790   8.193   2.409   2.903  0.1957  0.0052 -0.0384
    3TYR    SC1  791   8.326   2.418   2.611 -0.2029 -0.1482  0.1140
    3TYR    SC2  792   8.409   2.489   2.364  0.1673  0.1773  0.3184
    3TYR    SC3  793   8.515   2.271   2.484 -0.0641 -0.0223  0.1714
    1TYR     BB  794  -1.133   2.545   5.415 -0.2095 -0.0046  0.1832
    1TYR    SC1  795  -1.264   2.787   5.510  0.0050 -0.1405 -0.0136
    1TYR    SC2  796  -1.453   2.897   5.668 -0.1852 -0.1763 -0.2108
    1TYR    SC3  797  -1.258   3.052   5.563 -0.1134 -0.1357 -0.0214
    2TRP     BB  798  -1.291   2.384   5.171 -0.1107 -0.0584  0.0408
    2TRP    SC1  799  -1.425   2.570   4.984  0.3994  0.1738 -0.0586
    2TRP    SC2  800  -1.464   2.786   4.828 -0.3049  0.1945  0.0993
    2TRP    SC3  801  -1.467   2.811   5.097  0.3115  0.0698  0.1387
    2TRP    SC4  802  -1.526   3.024   4.940  0.1002  0.1860  0.3665
    3TYR     BB  803  -1.492   2.169   5.350 -0.1074  0.1083 -0.1027
    3TYR    SC1  804  -1.526   2.177   5.693  0.3406 -0.1214  0.3760
    3TYR    SC2  805  -1.433   2.415   5.780 -0.1980  0.2684 -0.0321
    3TYR    SC3  806  -1.673   2.324   5.866  0.0233 -0.1710  0.1590
    1TYR     BB  807   3.754   5.249   3.432 -0.1129  0.3172 -0.1715
    1TYR    SC1  808   3.960   5.385   3.254  0.0704 -0.1561 -0.2378
    1TYR    SC2  809   4.042   5.641   3.234 -0.1134 -0.0484  0.2250
    1TYR    SC3  810   4.131   5.457   3.058 -0.0175  0.3359 -0.1507
    2TRP     BB  811   3.919   5.444   3.706 -0.0706 -0.0628 -0.0800
    2TRP    SC1  812   3.732   5.448   3.967  0.1709 -0.0309 -0.0141
    2TRP    SC2  813   3.617   5.636   4.122  0.0979 -0.0649 -0.0258
    2TRP    SC3  814   3.877   5.571   4.158  0.1088 -0.0009  0.0144
    2TRP    SC4  815   3.762   5.755   4.317 -0.0027 -0.1394  0.0961
    3TYR     BB  816   4.084   5.732   3.721 -0.3120  0.1104 -0.0008
    3TYR    SC1  817   3.862   5.893   3.831 -0.1264 -0.0739  0.1199
    3TYR    SC2  818   3.603   5.966   3.856 -0.2129 -0.4094  0.2910
    3TYR    SC3  819   3.792   6.082   4.011 -0.2605 -0.1898  0.1918
    1TYR     BB  820   2.273   6.657   4.129 -0.3145  0.0631  0.0182
    1TYR    SC1  821   2.020   6.524   4.314 -0.0820  0.0761  0.1118
    1TYR    SC2  822   1.852   6.360   4.445 -0.0759 -0.0981 -0.0927
    1TYR    SC3  823   2.000   6.538   4.583 -0.3157 -0.0432  0.1034
    2TRP     BB  824   2.299   6.908   4.004 -0.0805  0.0569 -0.0465
    2TRP    SC1  825   2.501   6.965   3.771 -0.1656  0.2899  0.1809
    2TRP    SC2  826   2.665   7.047   3.573  0.0637 -0.0021  0.2400
    2TRP    SC3  827   2.499   7.223   3.694  0.0257  0.2110 -0.1057
    2TRP    SC4  828   2.669   7.308   3.502  0.0043 -0.1305 -0.2840
    3TYR     BB  829   2.306   7.231   4.150 -0.1122 -0.1853 -0.3481
    3TYR    SC1  830   2.199   7.174   4.425  0.1230 -0.2829 -0.3269
    3TYR    SC2  831   2.077   6.945   4.499  0.3290 -0.3174 -0.0809
    3TYR    SC3  832   2.155   7.124   4.687  0.0406  0.0298 -0.2750
    1TYR     BB  833   4.038   2.895   4.550  0.0338 -0.0641  0.3253
    1TYR    SC1  834   3.920   2.655   4.683 -0.1024 -0.0717 -0.2312
    1TYR    SC2  835   3.965   2.409   4.783 -0.2710  0.1889  0.5800
    1TYR    SC3  836   3.712   2.502   4.760 -0.2026  0.3427  0.4266
    2TRP     BB  837   4.374   2.883   4.525 -0.1361 -0.1352 -0.2216
    2TRP    SC1  838   4.541   3.132   4.565  0.0818 -0.1149 -0.0164
    2TRP    SC2  839   4.760   3.278   4.504  0.0789 -0.2084 -0.2645
    2TRP    SC3  840   4.771   3.095   4.702  0.0436  0.2114  0.1459
    2TRP    SC4  841   4.998   3.209   4.611  0.0521  0.0812 -0.0008
    3TYR     BB  842   4.406   2.695   4.233  0.0995 -0.0382 -0.1664
    3TYR    SC1  843   4.400   2.401   4.336 -0.1962 -0.3131 -0.0901
    3TYR    SC2  844   4.339   2.262   4.560 -0.3115 -0.2065 -0.0538
    3TYR    SC3  845   4.500   2.154   4.373  0.0690 -0.1676  0.2366
    1TYR     BB  846   1.228   2.438   2.820 -0.1747 -0.1751  0.2608
    1TYR    SC1  847   1.397   2.475   2.561  0.0829  0.2531 -0.1070
    1TYR    SC2  848   1.537   2.597   2.366  0.1628  0.1942 -0.0873
    1TYR    SC3  849   1.334   2.430   2.302  0.3761 -0.0549 -0.1333
    2TRP     BB  850   1.117   2.258   3.020  0.1251 -0.0614 -0.0416
    2TRP    SC1  851   1.311   2.097   3.145 -0.3763 -0.0958  0.0310
    2TRP    SC2  852   1.479   2.041   3.349 -0.2149 -0.0013 -0.0734
    2TRP    SC3  853   1.302   1.855   3.265 -0.0051 -0.1915 -0.1119
    2TRP    SC4  854   1.473   1.798   3.467  0.1998 -0.1157 -0.2605
    3TYR     BB  855   0.861   2.268   3.235  0.2231  0.3806 -0.1142
    3TYR    SC1  856   0.838   1.969   3.303 -0.3895 -0.0922 -0.2682
    3TYR    SC2  857   0.845   1.700   3.284 -0.1113 -0.1238  0.1198
    3TYR    SC3  858   0.702   1.818   3.479 -0.3259  0.0230 -0.1176
    1TYR     BB  859   2.899   2.020   3.648  0.1396  0.0856 -0.0169
    1TYR    SC1  860   2.699   2.207   3.711 -0.0571  0.2044 -0.0911
    1TYR    SC2  861   2.593   2.297   3.943 -0.0104  0.2319 -0.0800
    1TYR    SC3  862   2.581   2.449   3.721 -0.0048  0.2299 -0.0818
    2TRP     BB  863   2.922   1.832   3.381 -0.3489  0.0680 -0.1866
    2TRP    SC1  864   2.983   1.553   3.504 -0.0407  0.1030  0.1953
    2TRP    SC2  865   2.970   1.352   3.685 -0.1005  0.2399  0.3461
    2TRP    SC3  866   3.159   1.544   3.709  0.3036 -0.0733 -0.0930
    2TRP    SC4  867   3.132   1.355   3.900  0.4610 -0.0455 -0.0421
    3TYR     BB  868   2.738   1.866   3.173  0.2223  0.0961  0.1333
    3TYR    SC1  869   2.777   1.967   2.860  0.2948 -0.5905 -0.1966
    3TYR    SC2  870   2.693   2.060   2.620 -0.0123 -0.1304  0.0668
    3TYR    SC3  871   2.956   2.020   2.666  0.0430 -0.3464 -0.3740
    1TYR     BB  872   8.953   2.426   3.131  0.1683 -0.0608  0.3435
    1TYR    SC1  873   8.916   2.185   2.978 -0.0156 -0.0948  0.2270
    1TYR    SC2  874   8.818   2.061   2.760  0.2162  0.0881  0.0118
    1TYR    SC3  875   8.982   1.928   2.928  0.1718 -0.0042 -0.0172
    2TRP     BB  876   8.740   2.685   2.972  0.0051  0.1455  0.1308
    2TRP    SC1  877   8.919   2.903   3.025 -0.0665 -0.0999 -0.6359
    2TRP    SC2  878   9.064   3.131   3.025  0.1851 -0.2086  0.2811
    2TRP    SC3  879   9.160   2.912   2.902  0.3078 -0.0226  0.0337
    2TRP    SC4  880   9.276   3.151   2.859  0.0116  0.1365  0.0871
    3TYR     BB  881   8.444   2.847   2.868 -0.0567 -0.1478  0.0226
    3TYR    SC1  882   8.343   2.904   2.600  0.3033  0.0295  0.0313
    3TYR    SC2  883   8.211   2.935   2.367 -0.2376  0.2902  0.3473
    3TYR    SC3  884   8.425   3.089   2.421  0.2253 -0.1190 -0.1630
    1TYR     BB  885   1.586   2.539   3.217 -0.0103  0.1898  0.0889
    1TYR    SC1  886   1.598   2.716   2.987  0.2524 -0.0684  0.0013
    1TYR    SC2  887   1.671   2.806   2.743  0.0675 -0.2609 -0.1299
    1TYR    SC3  888   1.475   2.931   2.880  0.0787 -0.2332 -0.1389
    2TRP     BB  889   1.299   2.557   3.361 -0.0625  0.3133 -0.0972
    2TRP    SC1  890   1.182   2.792   3.215  0.1648 -0.0279 -0.1409
    2TRP    SC2  891   1.031   2.982   3.095  0.0042  0.0693  0.1976
    2TRP    SC3  892   0.941   2.728   3.113  0.2155 -0.0497 -0.2480
    2TRP    SC4  893   0.778   2.924   3.023  0.0281 -0.0015  0.1696
    3TYR     BB  894   1.200   2.415   3.556 -0.0507 -0.3039  0.2433
    3TYR    SC1  895   1.235   2.162   3.680  0.1206  0.1954 -0.3075
    3TYR    SC2  896   1.077   1.945   3.701 -0.0151  0.3128 -0.0560
    3TYR    SC3  897   1.301   1.964   3.851  0.0767  0.2821 -0.1876
    1TYR     BB  898   2.225   2.677   4.338  0.2121  0.2539 -0.1319
    1TYR    SC1  899   1.938   2.761   4.328 -0.1614  0.3108 -0.1561
    1TYR    SC2  900   1.685   2.666   4.330 -0.0703  0.0557  0.1422
    1TYR    SC3  901   1.734   2.924   4.395 -0.2879  0.2307 -0.3371
    2TRP     BB  902   2.363   2.779   4.107 -0.2820  0.0930 -0.2864
    2TRP    SC1  903   2.180   2.816   3.859  0.0329  0.2153 -0.2009
    2TRP    SC2  904   2.043   2.874   3.633 -0.1534  0.0075 -0.1462
    2TRP    SC3  905   2.141   2.625   3.671 -0.2876 -0.0147  0.0813
    2TRP    SC4  906   1.959   2.671   3.478 -0.1558 -0.0613 -0.0563
    3TYR     BB  907   2.445   3.077   4.197 -0.0967  0.0109  0.2589
    3TYR    SC1  908   2.168   3.220   4.134  0.2979 -0.0252 -0.1158
    3TYR    SC2  909   1.932   3.106   4.069  0.2817  0.1349 -0.3513
    3TYR    SC3  910   1.938   3.324   4.228  0.2763  0.0954 -0.2966
    1TYR     BB  911   9.006   2.166   2.324  0.1785 -0.2104 -0.1631
    1TYR    SC1  912   8.847   1.914   2.336 -0.1299  0.2919 -0.0114
    1TYR    SC2  913   8.877   1.650   2.289  0.0672  0.3530 -0.2527
    1TYR    SC3  914   8.631   1.754   2.328  0.0053  0.1009  0.0730
    2TRP     BB  915   8.936   2.518   2.572  0.0832  0.1561 -0.1990
    2TRP    SC1  916   9.229   2.460   2.733  0.0664  0.0057  0.0721
    2TRP    SC2  917   9.491   2.447   2.798  0.1059 -0.3362 -0.1258
    2TRP    SC3  918   9.403   2.640   2.631  0.2005 -0.1341  0.0499
    2TRP    SC4  919   9.660   2.643   2.715  0.0809 -0.0531  0.4320
    3TYR     BB  920   8.825   2.788   2.493 -0.2311 -0.0950 -0.2442
    3TYR    SC1  921   8.835   3.075   2.617 -0.3892  0.0247 -0.1349
    3TYR    SC2  922   8.705   3.282   2.730  0.0667  0.3081 -0.0988
    3TYR    SC3  923   8.907   3.329   2.558 -0.0786 -0.1165 -0.4043
    1TYR     BB  924   3.029   6.193   3.845  0.0389  0.0476 -0.0840
    1TYR    SC1  925   3.079   6.048   4.079 -0.0730  0.1875  0.0892
    1TYR    SC2  926   3.262   5.913   4.224 -0.1229  0.1149  0.0857
    1TYR    SC3  927   3.017   5.963   4.328 -0.1018  0.2106  0.0899
    2TRP     BB  928   3.318   6.362   3.764 -0.1078 -0.4390 -0.0052
    2TRP    SC1  929   3.279   6.633   3.923 -0.5665  0.3275 -0.2412
    2TRP    SC2  930   3.327   6.785   4.141 -0.2505 -0.1154  0.0171
    2TRP    SC3  931   3.474   6.819   3.918 -0.2928  0.0624  0.0150
    2TRP    SC4  932   3.527   6.966   4.138 -0.1687 -0.1998  0.1661
    3TYR     BB  933   3.570   6.385   3.663  0.0730 -0.0116  0.1780
    3TYR    SC1  934   3.564   6.148   3.418 -0.0808  0.0081  0.2524
    3TYR    SC2  935   3.733   5.938   3.401  0.0915  0.1553  0.0886
    3TYR    SC3  936   3.640   6.055   3.176  0.0340  0.2841  0.1780
    1TYR     BB  937   5.535   2.776   3.309 -0.1888  0.0691  0.0013
    1TYR    SC1  938   5.637   2.701   3.034  0.1293  0.0995  0.0172
    1TYR    SC2  939   5.653   2.709   2.765  0.7966  0.4548  0.0394
    1TYR    SC3  940   5.805   2.534   2.905  0.2626  0.0852  0.2031
    2TRP     BB  941   5.501   2.637   3.536 -0.0717  0.0463  0.3105
    2TRP    SC1  942   5.712   2.629   3.747  0.1410  0.1076 -0.0139
    2TRP    SC2  943   5.931   2.637   3.904 -0.0553  0.2185  0.2651
    2TRP    SC3  944   5.923   2.781   3.676  0.2739 -0.0262  0.0871
    2TRP    SC4  945   6.149   2.776   3.824  0.2100 -0.2208  0.1808
    3TYR     BB  946   5.232   2.786   3.739  0.0871  0.1859  0.1509
    3TYR    SC1  947   5.240   2.877   4.027  0.1380 -0.1721 -0.0179
    3TYR    SC2  948   5.195   2.998   4.264 -0.1957 -0.0784 -0.1226
    3TYR    SC3  949   5.346   2.775   4.253  0.6224  0.4146  0.0530
    1TYR     BB  950   1.312   2.388   4.144  0.0422  0.2631 -0.1216
    1TYR    SC1  951   1.582   2.241   4.248 -0.1042  0.0721 -0.1948
    1TYR    SC2  952   1.763   2.043   4.210 -0.2180 -0.1717  0.3979
    1TYR    SC3  953   1.819   2.247   4.379 -0.2862  0.0622  0.1473
    2TRP     BB  954   1.236   2.686   4.117  0.4303 -0.0459 -0.2771
    2TRP    SC1  955   1.022   2.733   3.892  0.2245  0.3590  0.3033
    2TRP    SC2  956   1.019   2.896   3.676 -0.0450  0.0344  0.0497
    2TRP    SC3  957   0.817   2.905   3.854  0.0365  0.1066  0.1398
    2TRP    SC4  958   0.818   3.073   3.644 -0.1334 -0.0748 -0.0119
    3TYR     BB  959   1.119   2.887   4.364  0.1255  0.0719  0.1357
    3TYR    SC1  960   1.017   3.133   4.212 -0.3941  0.2602 -0.1532
    3TYR    SC2  961   0.946   3.314   4.025 -0.0671  0.4431 -0.1084
    3TYR    SC3  962   1.062   3.395   4.256  0.2592  0.1724 -0.1658
    1TYR     BB  963   4.472   3.793   5.426  0.1874 -0.1571 -0.0170
    1TYR    SC1  964   4.667   3.820   5.671 -0.0758 -0.0938 -0.0262
    1TYR    SC2  965   4.758   3.812   5.925 -0.3068 -0.2457  0.0557
    1TYR    SC3  966   4.747   4.047   5.793  0.4672 -0.2450 -0.0673
    2TRP     BB  967   4.572   3.990   5.216 -0.1986  0.2815  0.4949
    2TRP    SC1  968   4.810   4.095   5.341 -0.0257  0.3278 -0.0515
    2TRP    SC2  969   5.006   4.237   5.463  0.0022  0.1667  0.0957
    2TRP    SC3  970   4.807   4.365   5.332  0.1094  0.3361  0.0962
    2TRP    SC4  971   5.017   4.504   5.430  0.3459  0.1337 -0.1050
    3TYR     BB  972   4.387   4.107   5.014  0.0544 -0.1862  0.1701
    3TYR    SC1  973   4.512   4.395   4.978 -0.1894 -0.1505 -0.1455
    3TYR    SC2  974   4.483   4.637   5.095  0.0700 -0.2345  0.1074
    3TYR    SC3  975   4.610   4.616   4.857  0.1092 -0.1292  0.1183
    1TYR     BB  976   4.148   3.718   3.950 -0.0267 -0.1547 -0.3404
    1TYR    SC1  977   4.144   3.478   4.115  0.2824  0.2539  0.0233
    1TYR    SC2  978   4.131   3.366   4.360 -0.0839 -0.0008 -0.1012
    1TYR    SC3  979   4.249   3.233   4.157  0.4988  0.3389 -0.0107
    2TRP     BB  980   4.069   3.909   4.284  0.0146 -0.1107  0.4410
    2TRP    SC1  981   4.347   4.026   4.281 -0.0933 -0.0784  0.3722
    2TRP    SC2  982   4.590   4.142   4.299 -0.1361  0.1130 -0.1153
    2TRP    SC3  983   4.387   4.229   4.453  0.0777  0.0010  0.2428
    2TRP    SC4  984   4.631   4.344   4.474  0.0269  0.2380 -0.2920
    3TYR     BB  985   3.971   3.855   4.550  0.0739  0.1382 -0.2263
    3TYR    SC1  986   3.834   3.582   4.664  0.0463  0.1599  0.5687
    3TYR    SC2  987   3.646   3.391   4.628  0.1028  0.1666  0.1966
    3TYR    SC3  988   3.872   3.333   4.762  0.1675 -0.0651 -0.0040
    1TYR     BB  989   2.938   2.163   4.537  0.1535  0.1226  0.1212
    1TYR    SC1  990   3.089   1.946   4.593 -0.0154  0.0313 -0.0867
    1TYR    SC2  991   3.070   1.682   4.539 -0.0199  0.1018 -0.4749
    1TYR    SC3  992   3.245   1.770   4.726 -0.2254 -0.1913 -0.1251
    2TRP     BB  993   2.680   2.333   4.395  0.0441 -0.2442 -0.0472
    2TRP    SC1  994   2.809   2.628   4.333 -0.3599  0.0219 -0.2960
    2TRP    SC2  995   2.886   2.882   4.375 -0.1140 -0.0693 -0.1747
    2TRP    SC3  996   2.697   2.772   4.531  0.0861 -0.0917  0.0603
    2TRP    SC4  997   2.757   3.035   4.556 -0.0185 -0.0477 -0.1239
    3TYR     BB  998   2.352   2.142   4.418  0.0329  0.0443  0.0098
    3TYR    SC1  999   2.213   2.179   4.140 -0.1312 -0.3379 -0.0249
    3TYR    SC2 1000   2.183   2.125   3.878 -0.1974 -0.0928 -0.0712
    3TYR    SC3 1001   2.099   2.362   3.977  0.7048  0.2551 -0.0243
    1TYR     BB 1002   5.032   3.972   4.397  0.0168  0.2194  0.0688
    1TYR    SC1 1003   5.191   3.748   4.527  0.0977 -0.0425 -0.0696
    1TYR    SC2 1004   5.443   3.654   4.552  0.0429 -0.1636  0.0371
    1TYR    SC3 1005   5.243   3.547   4.700 -0.0616 -0.0313 -0.0064
    2TRP     BB 1006   5.237   4.220   4.426 -0.1108  0.3061 -0.1412
    2TRP    SC1 1007   5.069   4.485   4.470  0.3468  0.1195  0.2154
    2TRP    SC2 1008   5.002   4.716   4.594  0.0547  0.1568  0.0024
    2TRP    SC3 1009   5.183   4.719   4.394 -0.1053  0.2401 -0.1433
    2TRP    SC4 1010   5.120   4.948   4.522 -0.3225  0.2680 -0.2927
    3TYR     BB 1011   5.531   4.232   4.491  0.1472  0.0814  0.2561
    3TYR    SC1 1012   5.680   4.263   4.213  0.3503  0.2782  0.2692
    3TYR    SC2 1013   5.800   4.234   3.972 -0.0483 -0.0543  0.0923
    3TYR    SC3 1014   5.649   4.452   4.022 -0.0351 -0.0251  0.0067
    1TYR     BB 1015   7.630   4.648   4.563 -0.0094  0.4069  0.4440
    1TYR    SC1 1016   7.644   4.883   4.725  0.2733 -0.0697 -0.0107
    1TYR    SC2 1017   7.829   5.043   4.839  0.1301  0.0777  0.0202
    1TYR    SC3 1018   7.589   5.144   4.768  0.1131 -0.0778 -0.1526
    2TRP     BB 1019   7.431   4.434   4.770  0.1423  0.1855  0.3765
    2TRP    SC1 1020   7.272   4.621   4.920 -0.3759  0.0240  0.0498
    2TRP    SC2 1021   7.221   4.885   4.948  0.1568  0.1562 -0.0898
    2TRP    SC3 1022   7.394   4.763   5.115 -0.2171 -0.1588  0.0872
    2TRP    SC4 1023   7.359   5.031   5.129  0.2420 -0.0857  0.0453
    3TYR     BB 1024   7.459   4.104   4.735  0.3267  0.0424 -0.1074
    3TYR    SC1 1025   7.248   3.937   4.900 -0.0087  0.0061 -0.0329
    3TYR    SC2 1026   7.191   3.717   5.046  0.2156 -0.1093 -0.1105
    3TYR    SC3 1027   7.029   3.792   4.843  0.1744 -0.2444 -0.1290
    1TYR     BB 1028   3.479   1.831   3.488  0.1152  0.0646 -0.0159
    1TYR    SC1 1029   3.778   1.773   3.491 -0.3769  0.2561  0.2057
    1TYR    SC2 1030   3.966   1.581   3.522 -0.5296  0.0433 -0.1082
    1TYR    SC3 1031   4.040   1.837   3.477 -0.3185 -0.0165 -0.1148
    2TRP     BB 1032   3.445   1.993   3.778  0.0465 -0.0884 -0.0789
    2TRP    SC1 1033   3.382   1.758   3.965 -0.2223 -0.2944  0.1254
    2TRP    SC2 1034   3.422   1.661   4.213  0.0461 -0.3551  0.0625
    2TRP    SC3 1035   3.607   1.622   4.021  0.0566  0.0810 -0.0281
    2TRP    SC4 1036   3.646   1.521   4.268  0.1952 -0.2138 -0.1639
    3TYR     BB 1037   3.727   2.181   3.796  0.0649  0.2065  0.0768
    3TYR    SC1 1038   3.906   2.046   3.979  0.0760  0.2039  0.1168
    3TYR    SC2 1039   4.094   1.950   4.147 -0.1188 -0.1084  0.1680
    3TYR    SC3 1040   4.012   1.801   3.938 -0.0978  0.1514 -0.0328
    1TYR     BB 1041   6.375   3.212   3.055 -0.0048  0.0489 -0.0673
    1TYR    SC1 1042   6.348   3.484   2.955  0.2214  0.1392  0.3337
    1TYR    SC2 1043   6.445   3.734   2.921 -0.2908  0.3255  0.0941
    1TYR    SC3 1044   6.332   3.603   2.713  0.0444 -0.1544  0.1928
    2TRP     BB 1045   6.529   3.199   3.373 -0.1597  0.0163  0.0045
    2TRP    SC1 1046   6.304   3.220   3.527 -0.0746 -0.3659 -0.0338
    2TRP    SC2 1047   6.086   3.198   3.685 -0.3415 -0.0393 -0.3340
    2TRP    SC3 1048   6.257   3.404   3.718 -0.0668 -0.2905 -0.1042
    2TRP    SC4 1049   6.031   3.391   3.865 -0.1732 -0.0752 -0.2410
    3TYR     BB 1050   6.807   3.140   3.386  0.1144  0.0826 -0.0277
    3TYR    SC1 1051   7.046   3.261   3.530 -0.0299 -0.2832 -0.1061
    3TYR    SC2 1052   7.306   3.191   3.538  0.0466 -0.0240 -0.1723
    3TYR    SC3 1053   7.236   3.449   3.575 -0.2084 -0.1023 -0.0878
    1TYR     BB 1054  -0.414   2.891   4.317  0.1886 -0.1688  0.0056
    1TYR    SC1 1055  -0.615   3.092   4.099 -0.0295  0.2516 -0.0869
    1TYR    SC2 1056  -0.513   3.215   3.881 -0.0618  0.2274 -0.1155
    1TYR    SC3 1057  -0.760   3.279   3.970 -0.0191  0.2908 -0.0421
    2TRP     BB 1058  -0.324   2.814   4.612  0.0309  0.2489  0.0590
    2TRP    SC1 1059  -0.368   3.050   4.836  0.0593  0.1015  0.2987
    2TRP    SC2 1060  -0.553   3.134   5.013 -0.4707 -0.2245 -0.0623
    2TRP    SC3 1061  -0.537   3.248   4.768 -0.0546 -0.0825  0.0203
    2TRP    SC4 1062  -0.732   3.324   4.940 -0.0022  0.2492 -0.0584
    3TYR     BB 1063  -0.388   2.528   4.677  0.2536  0.2046 -0.1798
    3TYR    SC1 1064  -0.225   2.349   4.890  0.1268 -0.2724 -0.1770
    3TYR    SC2 1065  -0.108   2.184   5.070 -0.1196  0.0334  0.2881
    3TYR    SC3 1066  -0.377   2.190   5.046 -0.0930  0.0121 -0.0920
    1TYR     BB 1067   4.102   2.553   3.846 -0.1681  0.2170 -0.0520
    1TYR    SC1 1068   3.989   2.513   4.118  0.0454 -0.0888  0.4395
    1TYR    SC2 1069   3.781   2.578   4.278 -0.4035 -0.0048 -0.1373
    1TYR    SC3 1070   3.925   2.355   4.328 -0.5425  0.0008  0.3502
    2TRP     BB 1071   4.001   2.525   3.582  0.0088  0.1260 -0.0600
    2TRP    SC1 1072   4.186   2.298   3.447  0.0493  0.0019  0.0123
    2TRP    SC2 1073   4.384   2.142   3.352  0.2731  0.1372  0.2414
    2TRP    SC3 1074   4.431   2.402   3.408  0.0635  0.1424  0.4098
    2TRP    SC4 1075   4.631   2.246   3.314  0.1931  0.3600  0.3134
    3TYR     BB 1076   3.736   2.501   3.423  0.1002  0.0943  0.2027
    3TYR    SC1 1077   3.625   2.543   3.149 -0.0708  0.5404  0.3459
    3TYR    SC2 1078   3.543   2.736   2.979 -0.0804  0.2980  0.0651
    3TYR    SC3 1079   3.611   2.493   2.884 -0.3944  0.0487  0.4409
    1TYR     BB 1080   9.134   3.326   5.246 -0.0205  0.2459  0.0333
    1TYR    SC1 1081   8.872   3.256   5.411  0.0623 -0.1435  0.0129
    1TYR    SC2 1082   8.637   3.122   5.425 -0.0289  0.0307  0.2155
    1TYR    SC3 1083   8.766   3.195   5.651  0.2213 -0.0588  0.1065
    2TRP     BB 1084   9.266   3.369   4.956 -0.3259  0.0445  0.2855
    2TRP    SC1 1085   9.553   3.251   4.970  0.2178  0.1466 -0.0757
    2TRP    SC2 1086   9.796   3.146   5.021  0.1447  0.0359  0.0545
    2TRP    SC3 1087   9.593   3.106   5.195 -0.0791 -0.2364 -0.2560
    2TRP    SC4 1088   9.840   3.014   5.252 -0.0637 -0.0074  0.0718
    3TYR     BB 1089   9.117   3.443   4.657  0.1685  0.1111 -0.2522
    3TYR    SC1 1090   8.839   3.579   4.629  0.0205 -0.0832 -0.0701
    3TYR    SC2 1091   8.613   3.455   4.554 -0.0846  0.1337 -0.1238
    3TYR    SC3 1092   8.613   3.722   4.591  0.1490  0.1278 -0.0656
    1TYR     BB 1093   2.485   2.826   3.276 -0.0619  0.1498 -0.2144
    1TYR    SC1 1094   2.249   2.812   3.024 -0.3362 -0.1893 -0.0226
    1TYR    SC2 1095   2.013   2.696   2.963 -0.3324 -0.0622 -0.2941
    1TYR    SC3 1096   2.152   2.828   2.772 -0.0072 -0.1909 -0.1554
    2TRP     BB 1097   2.470   3.065   3.538 -0.1584  0.2154 -0.0557
    2TRP    SC1 1098   2.654   2.879   3.729 -0.0190  0.0802 -0.2134
    2TRP    SC2 1099   2.846   2.757   3.875 -0.1579  0.1051 -0.0035
    2TRP    SC3 1100   2.859   3.022   3.828 -0.1264  0.1015 -0.0158
    2TRP    SC4 1101   3.052   2.900   3.972 -0.2278  0.1142  0.1345
    3TYR     BB 1102   2.463   3.310   3.748  0.2349 -0.0604  0.2880
    3TYR    SC1 1103   2.135   3.380   3.683 -0.0763 -0.2749  0.2375
    3TYR    SC2 1104   1.896   3.316   3.574 -0.0297 -0.1647  0.0652
    3TYR    SC3 1105   1.910   3.501   3.770 -0.0264  0.3331 -0.3804
    1TYR     BB 1106   3.218   3.267   4.270  0.1666  0.1655 -0.2359
    1TYR    SC1 1107   3.245   3.332   3.989 -0.0258 -0.0627  0.1015
    1TYR    SC2 1108   3.316   3.491   3.783  0.0735  0.1480  0.2933
    1TYR    SC3 1109   3.064   3.400   3.802  0.1721 -0.2781 -0.1796
    2TRP     BB 1110   3.420   3.005   4.347 -0.0198  0.0101 -0.2039
    2TRP    SC1 1111   3.682   3.095   4.203 -0.0210  0.3125 -0.2424
    2TRP    SC2 1112   3.865   2.980   4.042  0.0392  0.3355 -0.1911
    2TRP    SC3 1113   3.641   3.087   3.937 -0.2625 -0.2571 -0.2058
    2TRP    SC4 1114   3.824   2.970   3.776 -0.0545  0.0072 -0.1706
    3TYR     BB 1115   3.360   2.754   4.485  0.0096 -0.1046 -0.3179
    3TYR    SC1 1116   3.169   2.696   4.741  0.2200  0.3034  0.2518
    3TYR    SC2 1117   2.971   2.543   4.844  0.1220  0.3754  0.1722
    3TYR    SC3 1118   3.226   2.456   4.851  0.0217 -0.0018 -0.2658
    1TYR     BB 1119   7.353   1.993   2.842 -0.2493  0.1780  0.0460
    1TYR    SC1 1120   7.519   2.017   2.548 -0.1769 -0.2613 -0.0043
    1TYR    SC2 1121   7.660   2.150   2.359  0.1778 -0.2778  0.2373
    1TYR    SC3 1122   7.609   1.887   2.328  0.4924 -0.3507  0.2890
    2TRP     BB 1123   7.456   2.148   2.977 -0.2388 -0.0453  0.0603
    2TRP    SC1 1124   7.416   2.082   3.308  0.0539 -0.1429 -0.2054
    2TRP    SC2 1125   7.396   2.130   3.572 -0.3668 -0.3368 -0.1928
    2TRP    SC3 1126   7.402   2.336   3.399  0.1779 -0.1960 -0.0317
    2TRP    SC4 1127   7.383   2.383   3.663 -0.3337 -0.3957 -0.0193
    3TYR     BB 1128   7.657   2.456   2.948 -0.2437 -0.0712 -0.0099
    3TYR    SC1 1129   7.715   2.467   2.678 -0.2469 -0.0050 -0.2750
    3TYR    SC2 1130   7.884   2.504   2.471 -0.2441  0.3306 -0.2190
    3TYR    SC3 1131   7.620   2.552   2.441 -0.2859  0.1142 -0.2178
    1TYR     BB 1132   5.317   3.968   4.019 -0.3623  0.2888 -0.1198
    1TYR    SC1 1133   5.576   3.873   4.130 -0.1135  0.0927  0.1197
    1TYR    SC2 1134   5.799   3.787   4.255 -0.0411  0.0236 -0.0547
    1TYR    SC3 1135   5.670   3.625   4.080 -0.0490  0.1742 -0.1910
    2TRP     BB 1136   5.145   3.835   3.830  0.2053 -0.0017  0.1264
    2TRP    SC1 1137   4.857   3.879   3.710 -0.3368 -0.0358  0.1765
    2TRP    SC2 1138   4.600   3.916   3.639 -0.3738 -0.0382  0.3060
    2TRP    SC3 1139   4.721   4.093   3.803 -0.2649  0.0116  0.1738
    2TRP    SC4 1140   4.473   4.144   3.711  0.0270  0.4765 -0.4496
    3TYR     BB 1141   5.424   3.706   3.588  0.3671  0.0338 -0.3179
    3TYR    SC1 1142   5.413   3.747   3.284 -0.2517 -0.1203 -0.0004
    3TYR    SC2 1143   5.450   3.630   3.044 -0.0397  0.2231 -0.1461
    3TYR    SC3 1144   5.592   3.850   3.109  0.1385 -0.0391  0.4239
    1TYR     BB 1145   3.041   6.770   4.683  0.3448 -0.0651 -0.1521
    1TYR    SC1 1146   3.128   7.031   4.561  0.1541  0.2048  0.0086
    1TYR    SC2 1147   3.356   7.158   4.493  0.3013 -0.0088  0.0854
    1TYR    SC3 1148   3.117   7.270   4.438  0.4217  0.1723 -0.0894
    2TRP     BB 1149   2.944   6.553   4.368  0.2143 -0.0270  0.3911
    2TRP    SC1 1150   3.194   6.423   4.339 -0.1375  0.4023  0.2617
    2TRP    SC2 1151   3.437   6.322   4.279 -0.2432  0.3610 -0.1332
    2TRP    SC3 1152   3.325   6.269   4.519 -0.1154 -0.1206 -0.1649
    2TRP    SC4 1153   3.562   6.157   4.453  0.0600  0.3344 -0.3647
    3TYR     BB 1154   2.768   6.413   4.191 -0.2507  0.0996 -0.0941
    3TYR    SC1 1155   2.536   6.271   4.348  0.2476  0.0073  0.0728
    3TYR    SC2 1156   2.289   6.208   4.438  0.2571 -0.2195 -0.0509
    3TYR    SC3 1157   2.489   6.028   4.458  0.4505  0.0110  0.1730
    1TYR     BB 1158   5.091   2.938   3.149  0.1419  0.1218 -0.2119
    1TYR    SC1 1159   5.300   3.028   2.959 -0.0670  0.0462  0.1077
    1TYR    SC2 1160   5.516   3.184   2.926 -0.1107  0.0364 -0.2875
    1TYR    SC3 1161   5.399   3.069   2.711 -0.4760 -0.0042 -0.0769
    2TRP     BB 1162   5.092   3.105   3.374 -0.3104  0.2668  0.4284
    2TRP    SC1 1163   5.153   3.403   3.315  0.5137  0.2092  0.2308
    2TRP    SC2 1164   5.034   3.598   3.173  0.3548 -0.1516 -0.1548
    2TRP    SC3 1165   4.939   3.531   3.417  0.0957 -0.0798 -0.2316
    2TRP    SC4 1166   4.836   3.743   3.285  0.2285 -0.1209 -0.4069
    3TYR     BB 1167   4.850   3.081   3.565 -0.4127  0.0034  0.1195
    3TYR    SC1 1168   4.776   3.017   3.820  0.0367 -0.1483 -0.2038
    3TYR    SC2 1169   4.784   2.872   4.047  0.2907  0.1267 -0.0275
    3TYR    SC3 1170   4.691   3.126   4.052  0.2418  0.1157 -0.2459
    1TYR     BB 1171   3.861   4.829   2.559  0.4967  0.2327 -0.0847
    1TYR    SC1 1172   3.807   5.126   2.446 -0.1020  0.1313 -0.3764
    1TYR    SC2 1173   3.941   5.356   2.492 -0.0393  0.0322 -0.0269
    1TYR    SC3 1174   3.670   5.353   2.495 -0.0434  0.1223 -0.1632
    2TRP     BB 1175   3.744   4.565   2.720  0.1400  0.0088  0.0972
    2TRP    SC1 1176   3.876   4.298   2.629  0.2083  0.0977 -0.3631
    2TRP    SC2 1177   3.946   4.038   2.656 -0.1230  0.0279 -0.0961
    2TRP    SC3 1178   4.098   4.231   2.768 -0.2048 -0.1026  0.2598
    2TRP    SC4 1179   4.162   3.971   2.802 -0.2565 -0.1486  0.0277
    3TYR     BB 1180   3.457   4.522   2.742  0.2369 -0.1154 -0.0770
    3TYR    SC1 1181   3.302   4.443   2.989 -0.2533 -0.1633 -0.1487
    3TYR    SC2 1182   3.309   4.388   3.253 -0.2116 -0.0010 -0.1149
    3TYR    SC3 1183   3.232   4.197   3.078 -0.3793 -0.0666  0.0264
    1TYR     BB 1184  -0.831   2.336   4.836  0.0222 -0.2558 -0.1827
    1TYR    SC1 1185  -0.868   2.161   5.101  0.1046 -0.2318  0.3515
    1TYR    SC2 1186  -1.041   1.988   5.212 -0.0584 -0.4144 -0.1490
    1TYR    SC3 1187  -0.783   1.987   5.289 -0.1682 -0.4787  0.2560
    2TRP     BB 1188  -0.764   2.609   5.002 -0.1594  0.0501  0.2799
    2TRP    SC1 1189  -1.010   2.840   5.002 -0.2316 -0.1921  0.0408
    2TRP    SC2 1190  -1.116   3.081   4.945 -0.0781 -0.1138  0.0822
    2TRP    SC3 1191  -1.027   3.029   5.195  0.3447 -0.0339 -0.0404
    2TRP    SC4 1192  -1.161   3.257   5.145 -0.3575 -0.3494  0.2352
    3TYR     BB 1193  -0.564   2.670   5.137  0.0341  0.0104  0.0048
    3TYR    SC1 1194  -0.263   2.688   5.150 -0.1956 -0.1964 -0.1069
    3TYR    SC2 1195  -0.051   2.760   4.997 -0.1063  0.1577  0.1674
    3TYR    SC3 1196  -0.013   2.625   5.227 -0.1721  0.2632  0.2415
    1TYR     BB 1197   5.705   1.973   2.983 -0.0896 -0.0133  0.0054
    1TYR    SC1 1198   6.003   1.967   2.897  0.1974  0.2690 -0.2666
    1TYR    SC2 1199   6.266   1.910   2.908  0.1125 -0.1441 -0.1592
    1TYR    SC3 1200   6.138   1.900   2.673  0.1759 -0.0075 -0.2012
    2TRP     BB 1201   5.692   2.220   3.287 -0.2010  0.2031  0.1036
    2TRP    SC1 1202   5.409   2.112   3.414 -0.1783 -0.4175  0.0015
    2TRP    SC2 1203   5.180   1.995   3.329 -0.3898  0.0592 -0.1231
    2TRP    SC3 1204   5.178   2.153   3.549 -0.2175  0.1906 -0.2133
    2TRP    SC4 1205   4.956   2.017   3.480 -0.2663  0.1261  0.0560
    3TYR     BB 1206   5.950   2.379   3.364  0.0274 -0.1643  0.0381
    3TYR    SC1 1207   6.130   2.338   3.124 -0.2400  0.0773 -0.0301
    3TYR    SC2 1208   6.186   2.367   2.862 -0.0379 -0.2957 -0.0366
    3TYR    SC3 1209   6.378   2.282   3.033 -0.1397  0.0309  0.2553
    1TYR     BB 1210   0.324   2.717   3.866 -0.1456 -0.3174  0.0348
    1TYR    SC1 1211   0.144   2.953   3.826  0.0399  0.1851 -0.0569
    1TYR    SC2 1212   0.052   3.177   3.946 -0.1382 -0.0923  0.3531
    1TYR    SC3 1213  -0.121   2.985   3.868  0.0289 -0.1926  0.2202
    2TRP     BB 1214   0.202   2.446   3.865  0.2454  0.0009 -0.3979
    2TRP    SC1 1215   0.360   2.308   4.099 -0.2776  0.0756  0.2058
    2TRP    SC2 1216   0.496   2.141   4.261 -0.0097 -0.1012 -0.1813
    2TRP    SC3 1217   0.299   2.045   4.102 -0.2841  0.0733  0.0409
    2TRP    SC4 1218   0.424   1.881   4.278 -0.0668 -0.0905 -0.2557
    3TYR     BB 1219  -0.154   2.358   3.860  0.1508  0.1870  0.2025
    3TYR    SC1 1220  -0.370   2.491   3.922 -0.2094 -0.2458  0.1596
    3TYR    SC2 1221  -0.451   2.735   3.839  0.1091 -0.2611 -0.2359
    3TYR    SC3 1222  -0.633   2.542   3.886 -0.1656  0.0956  0.2801
    1TYR     BB 1223   2.230   6.260   3.870  0.1822 -0.1769 -0.2149
    1TYR    SC1 1224   2.457   6.069   3.904  0.3263 -0.2102  0.2413
    1TYR    SC2 1225   2.394   5.810   3.948 -0.1688 -0.1009  0.2397
    1TYR    SC3 1226   2.623   5.912   4.048  0.1108 -0.5704  0.1132
    2TRP     BB 1227   2.053   6.209   3.594 -0.0943  0.0123  0.1710
    2TRP    SC1 1228   2.158   6.412   3.375  0.0304 -0.0665 -0.1102
    2TRP    SC2 1229   2.086   6.443   3.117  0.2171  0.1161 -0.1434
    2TRP    SC3 1230   2.314   6.313   3.179  0.0514 -0.1442 -0.0550
    2TRP    SC4 1231   2.219   6.304   2.926 -0.0980 -0.4304  0.0064
    3TYR     BB 1232   2.078   5.925   3.431  0.0432  0.2479  0.1742
    3TYR    SC1 1233   2.016   5.704   3.641 -0.0128 -0.0980 -0.1874
    3TYR    SC2 1234   2.072   5.514   3.825 -0.0050  0.1884  0.1192
    3TYR    SC3 1235   1.882   5.469   3.637  0.1121 -0.1785  0.0788
    1TYR     BB 1236   3.166   4.299   4.357 -0.1338  0.1192  0.3130
    1TYR    SC1 1237   3.148   4.045   4.168 -0.0168  0.0255 -0.0343
    1TYR    SC2 1238   3.210   3.782   4.164  0.1850  0.0691  0.0808
    1TYR    SC3 1239   3.138   3.907   3.936  0.1421 -0.0733  0.0156
    2TRP     BB 1240   3.055   4.442   4.613 -0.1828  0.2528 -0.1100
    2TRP    SC1 1241   3.116   4.245   4.832 -0.1149 -0.1605  0.1129
    2TRP    SC2 1242   3.199   4.071   5.021 -0.1974 -0.4146 -0.0767
    2TRP    SC3 1243   2.952   4.180   5.037 -0.1439 -0.3069  0.0444
    2TRP    SC4 1244   3.059   4.053   5.250  0.0523 -0.0245  0.1211
    3TYR     BB 1245   3.012   4.697   4.611 -0.1303  0.1895  0.3220
    3TYR    SC1 1246   3.143   4.935   4.741 -0.3395  0.0617 -0.1200
    3TYR    SC2 1247   3.106   5.135   4.918  0.0456  0.2142 -0.1974
    3TYR    SC3 1248   3.303   5.152   4.734 -0.0395 -0.1541 -0.3351
    1TYR     BB 1249   1.109   6.700   3.658 -0.1813  0.0154  0.1124
    1TYR    SC1 1250   0.864   6.704   3.487 -0.2842  0.0211  0.2360
    1TYR    SC2 1251   0.776   6.681   3.234 -0.1413 -0.3952  0.2155
    1TYR    SC3 1252   0.655   6.852   3.402 -0.1627 -0.0193 -0.1595
    2TRP     BB 1253   1.351   6.926   3.709  0.0073  0.1262  0.0731
    2TRP    SC1 1254   1.559   6.927   3.442 -0.1338  0.0212  0.0645
    2TRP    SC2 1255   1.618   7.097   3.241 -0.1392  0.0979  0.1270
    2TRP    SC3 1256   1.729   7.132   3.484 -0.0547 -0.0532  0.1121
    2TRP    SC4 1257   1.810   7.283   3.275  0.0443 -0.0867  0.1255
    3TYR     BB 1258   1.292   7.113   3.838 -0.2147 -0.2795  0.2918
    3TYR    SC1 1259   1.136   7.090   4.130  0.0987 -0.0424  0.1032
    3TYR    SC2 1260   0.906   6.968   4.203  0.1684 -0.0985  0.2340
    3TYR    SC3 1261   1.031   7.133   4.376  0.1869 -0.0076  0.1350
    1TYR     BB 1262   7.925   4.238   4.664 -0.0578 -0.0667 -0.1782
    1TYR    SC1 1263   8.046   4.046   4.484 -0.1767 -0.2932 -0.2246
    1TYR    SC2 1264   8.223   3.842   4.474 -0.1294 -0.2615 -0.0694
    1TYR    SC3 1265   8.107   3.933   4.247  0.3365 -0.0370 -0.2315
    2TRP     BB 1266   7.862   4.159   4.972 -0.0065  0.1304  0.3255
    2TRP    SC1 1267   7.916   4.361   5.143  0.4822  0.0563 -0.5017
    2TRP    SC2 1268   7.911   4.570   5.312  0.1454 -0.1365 -0.2565
    2TRP    SC3 1269   7.828   4.601   5.057  0.1842  0.0462 -0.2487
    2TRP    SC4 1270   7.842   4.815   5.222  0.4621 -0.0133 -0.1860
    3TYR     BB 1271   7.744   3.911   5.064  0.1287  0.0287 -0.2609
    3TYR    SC1 1272   7.598   3.768   5.263 -0.0694 -0.2368  0.0563
    3TYR    SC2 1273   7.553   3.528   5.378 -0.1005 -0.2465  0.0244
    3TYR    SC3 1274   7.401   3.741   5.447  0.0303 -0.1977  0.1703
    1TYR     BB 1275   4.345   3.713   3.246 -0.1294 -0.0566 -0.0980
    1TYR    SC1 1276   4.189   3.579   3.017 -0.1415 -0.1226 -0.0556
    1TYR    SC2 1277   4.142   3.329   2.926 -0.4633  0.0452 -0.3807
    1TYR    SC3 1278   3.957   3.523   2.891 -0.2523  0.3173 -0.0675
    2TRP     BB 1279   4.350   3.514   3.458 -0.0749  0.1383  0.0847
    2TRP    SC1 1280   4.063   3.383   3.510  0.1186  0.3512  0.0020
    2TRP    SC2 1281   3.803   3.395   3.584  0.1406  0.3197  0.0857
    2TRP    SC3 1282   3.877   3.475   3.338  0.0214  0.1347 -0.0126
    2TRP    SC4 1283   3.618   3.486   3.411  0.0186 -0.0476  0.0118
    3TYR     BB 1284   4.550   3.427   3.712 -0.0059  0.1106  0.4485
    3TYR    SC1 1285   4.617   3.569   3.948  0.2465  0.0523  0.0385
    3TYR    SC2 1286   4.711   3.772   4.098 -0.0048  0.0254  0.2386
    3TYR    SC3 1287   4.573   3.571   4.213 -0.0859 -0.0661 -0.0101
    1TYR     BB 1288   3.796   4.498   3.619  0.0091  0.2131  0.0501
    1TYR    SC1 1289   3.503   4.410   3.714  0.3193 -0.2519  0.2723
    1TYR    SC2 1290   3.293   4.344   3.872 -0.0478  0.2189  0.0141
    1TYR    SC3 1291   3.303   4.587   3.754  0.2976 -0.0415 -0.5490
    2TRP     BB 1292   3.770   4.612   3.305  0.0127  0.1785  0.1417
    2TRP    SC1 1293   4.004   4.625   3.130  0.1713 -0.0067  0.1035
    2TRP    SC2 1294   4.202   4.696   2.961  0.2576 -0.1856  0.1266
    2TRP    SC3 1295   4.140   4.855   3.171 -0.0263  0.1764 -0.2112
    2TRP    SC4 1296   4.315   4.940   2.984  0.0879 -0.0665 -0.2206
    3TYR     BB 1297   3.545   4.798   3.248 -0.2022 -0.0134 -0.2144
    3TYR    SC1 1298   3.660   4.967   3.046  0.0858  0.3490  0.4606
    3TYR    SC2 1299   3.548   5.118   2.852  0.1250 -0.1461  0.0220
    3TYR    SC3 1300   3.805   5.160   2.925  0.1358 -0.0072 -0.0919
   7.62593   7.62593   7.62593
