Generated by trjconv : Martini system from ../2_Creating_coordinates/TYR-PRO-TYR_aa.pdb t=   0.00000
 1000
    1TYR     BB    1   4.236   5.236  -0.686 -0.1338  0.2712 -0.0067
    1TYR    SC1    2   4.527   5.212  -0.582  0.3033 -0.0500 -0.0063
    1TYR    SC2    3   4.796   5.240  -0.590  0.2937  0.1502  0.2163
    1TYR    SC3    4   4.652   5.371  -0.402  0.0190  0.2075 -0.0257
    2PRO     BB    5   4.264   5.215  -1.055  0.0665 -0.1966  0.0329
    2PRO    SC1    6   4.490   5.180  -1.180 -0.1073  0.0201  0.1678
    3TYR     BB    7   4.030   5.026  -1.209 -0.1430  0.2556 -0.0253
    3TYR    SC1    8   3.878   5.172  -1.429 -0.1966 -0.2122  0.0916
    3TYR    SC2    9   3.842   5.207  -1.694 -0.3274  0.4316  0.1724
    3TYR    SC3   10   3.647   5.278  -1.521 -0.3500 -0.2178  0.4490
    1TYR     BB   11   2.692   4.288   2.404 -0.0849 -0.3782 -0.0406
    1TYR    SC1   12   2.730   4.573   2.417 -0.0922  0.0852  0.3520
    1TYR    SC2   13   2.883   4.729   2.258 -0.2635 -0.1899 -0.1064
    1TYR    SC3   14   2.832   4.806   2.512  0.5012 -0.0165  0.0272
    2PRO     BB   15   2.855   4.181   2.660 -0.2959 -0.2373  0.1496
    2PRO    SC1   16   2.696   4.038   2.805  0.2306 -0.1152  0.1348
    3TYR     BB   17   2.807   4.477   2.952  0.0447 -0.0266  0.1557
    3TYR    SC1   18   2.828   4.290   3.201 -0.1756  0.0815 -0.0677
    3TYR    SC2   19   2.766   4.054   3.315 -0.1751  0.0159 -0.2009
    3TYR    SC3   20   3.025   4.121   3.275 -0.1554  0.2142  0.1970
    1TYR     BB   21   3.727   3.439   7.309  0.0132  0.1053 -0.0276
    1TYR    SC1   22   3.707   3.724   7.180  0.0655 -0.0287 -0.2585
    1TYR    SC2   23   3.610   3.958   7.276  0.0057 -0.1604  0.0117
    1TYR    SC3   24   3.618   3.914   7.010  0.3469  0.2896 -0.0655
    2PRO     BB   25   3.935   3.467   7.577 -0.2346 -0.0932 -0.1010
    2PRO    SC1   26   4.105   3.727   7.501 -0.0097  0.0236 -0.0790
    3TYR     BB   27   4.008   3.323   7.832 -0.2576 -0.0561 -0.2429
    3TYR    SC1   28   4.269   3.426   7.915  0.1988  0.2053  0.0327
    3TYR    SC2   29   4.350   3.683   7.924  0.2914  0.1788 -0.0210
    3TYR    SC3   30   4.514   3.487   8.011  0.0535  0.1712  0.4520
    1TYR     BB   31   4.227   3.845   5.594 -0.1002 -0.1583 -0.0408
    1TYR    SC1   32   4.504   3.796   5.753 -0.0977  0.4106  0.1997
    1TYR    SC2   33   4.757   3.760   5.668 -0.1171  0.2355  0.2118
    1TYR    SC3   34   4.710   3.825   5.925 -0.0803  0.3688  0.1860
    2PRO     BB   35   4.060   3.610   5.634  0.0245  0.1881  0.1826
    2PRO    SC1   36   3.757   3.632   5.652 -0.0517  0.1065  0.0663
    3TYR     BB   37   4.145   3.277   5.498 -0.3926 -0.0139  0.2188
    3TYR    SC1   38   4.129   3.361   5.227  0.1595 -0.0879  0.2359
    3TYR    SC2   39   4.041   3.487   5.006  0.0478 -0.1176  0.2625
    3TYR    SC3   40   4.254   3.322   4.991 -0.1549 -0.3738  0.1072
    1TYR     BB   41   4.074   3.018   8.781 -0.0448  0.2095  0.1628
    1TYR    SC1   42   4.095   2.829   9.047  0.2964  0.3341 -0.1239
    1TYR    SC2   43   3.976   2.821   9.289  0.0292  0.0989 -0.2569
    1TYR    SC3   44   4.223   2.717   9.256  0.2776  0.5648  0.0160
    2PRO     BB   45   4.299   2.999   8.480 -0.2419  0.1789  0.1045
    2PRO    SC1   46   4.338   2.698   8.493  0.0384 -0.3171 -0.0279
    3TYR     BB   47   4.428   3.180   8.373  0.1501  0.0466 -0.0592
    3TYR    SC1   48   4.731   3.282   8.335  0.1631 -0.0465  0.0056
    3TYR    SC2   49   4.898   3.237   8.128  0.1185 -0.1284 -0.0136
    3TYR    SC3   50   4.995   3.332   8.362  0.2385 -0.4334  0.0663
    1TYR     BB   51   4.519   5.040   0.844  0.2686  0.0744  0.2135
    1TYR    SC1   52   4.284   5.040   0.693  0.3793  0.3184 -0.3558
    1TYR    SC2   53   4.234   4.974   0.436  0.1366  0.1140 -0.2615
    1TYR    SC3   54   4.087   5.165   0.558  0.1712  0.1258 -0.2384
    2PRO     BB   55   4.511   5.215   1.129 -0.0790  0.0027  0.0790
    2PRO    SC1   56   4.778   5.250   1.249 -0.1945  0.0938 -0.1763
    3TYR     BB   57   4.300   5.464   0.994 -0.3070 -0.2074 -0.0576
    3TYR    SC1   58   4.111   5.526   1.222 -0.0667  0.1855 -0.2732
    3TYR    SC2   59   4.148   5.372   1.440  0.2877  0.2536 -0.2764
    3TYR    SC3   60   3.923   5.519   1.415  0.4312  0.5991  0.2716
    1TYR     BB   61   5.061   3.862   7.295  0.3543 -0.2000  0.1340
    1TYR    SC1   62   5.172   3.608   7.228  0.0638 -0.0359  0.3013
    1TYR    SC2   63   5.271   3.539   6.986 -0.1063 -0.0610  0.2374
    1TYR    SC3   64   5.362   3.417   7.208 -0.0211 -0.1089  0.1769
    2PRO     BB   65   5.171   4.114   7.328  0.0458  0.0119 -0.1249
    2PRO    SC1   66   5.426   4.132   7.426  0.0695 -0.2900  0.0206
    3TYR     BB   67   4.957   4.378   7.235  0.2430 -0.0760  0.0143
    3TYR    SC1   68   4.793   4.333   6.996  0.1108 -0.1636 -0.0627
    3TYR    SC2   69   4.765   4.314   6.728  0.0250  0.3029 -0.0957
    3TYR    SC3   70   4.548   4.352   6.884  0.0770  0.0538  0.0431
    1TYR     BB   71   3.374   2.618   2.336  0.1303  0.0319  0.1393
    1TYR    SC1   72   3.350   2.339   2.388 -0.2703 -0.0144  0.1703
    1TYR    SC2   73   3.241   2.101   2.454  0.0864 -0.1725  0.2179
    1TYR    SC3   74   3.470   2.181   2.572  0.1880  0.0096 -0.0912
    2PRO     BB   75   3.295   2.682   2.030 -0.1176  0.1516 -0.0084
    2PRO    SC1   76   3.239   2.527   1.779  0.1186  0.0991  0.0597
    3TYR     BB   77   3.517   2.928   1.802 -0.0619 -0.1150  0.3530
    3TYR    SC1   78   3.486   2.847   1.468  0.0154  0.0075 -0.1805
    3TYR    SC2   79   3.574   2.874   1.215 -0.0823  0.3471 -0.1855
    3TYR    SC3   80   3.423   2.661   1.283  0.0422  0.1912 -0.3798
    1TYR     BB   81   2.274   3.598   2.012 -0.3768 -0.0150 -0.2252
    1TYR    SC1   82   2.241   3.813   2.178  0.0734 -0.1403  0.1065
    1TYR    SC2   83   2.247   4.069   2.264  0.1066 -0.0128 -0.2555
    1TYR    SC3   84   2.258   3.867   2.443 -0.0741  0.2335  0.0475
    2PRO     BB   85   2.534   3.535   1.813 -0.0220  0.0865 -0.0679
    2PRO    SC1   86   2.511   3.719   1.604  0.1185 -0.1901  0.0437
    3TYR     BB   87   2.829   3.401   1.843 -0.2009 -0.5066 -0.1377
    3TYR    SC1   88   2.855   3.104   1.736 -0.0847  0.2136 -0.2044
    3TYR    SC2   89   3.055   2.938   1.662 -0.0605  0.1069  0.0839
    3TYR    SC3   90   2.822   2.935   1.527 -0.1347 -0.3156  0.2012
    1TYR     BB   91   2.968   2.960   2.245 -0.0840 -0.2024  0.3069
    1TYR    SC1   92   2.763   2.800   2.120  0.2188 -0.1151  0.5149
    1TYR    SC2   93   2.580   2.602   2.119  0.0414  0.0428  0.2397
    1TYR    SC3   94   2.754   2.627   1.913  0.2678 -0.0055  0.4196
    2PRO     BB   95   3.243   3.201   2.157  0.6566  0.0985  0.0704
    2PRO    SC1   96   3.523   3.091   2.270 -0.2310 -0.0274 -0.1222
    3TYR     BB   97   3.162   3.444   2.242 -0.0818 -0.2325  0.0100
    3TYR    SC1   98   3.017   3.477   2.512  0.1116 -0.1123 -0.1897
    3TYR    SC2   99   2.966   3.669   2.694 -0.0399  0.0847 -0.4303
    3TYR    SC3  100   2.947   3.408   2.763  0.3420  0.1437 -0.0499
    1TYR     BB  101   4.687   3.244   6.283 -0.4948 -0.0704  0.1020
    1TYR    SC1  102   4.944   3.277   6.417  0.4291 -0.1364  0.2662
    1TYR    SC2  103   5.211   3.253   6.443  0.4539  0.1674  0.3565
    1TYR    SC3  104   5.083   3.459   6.562  0.1456 -0.0986  0.5046
    2PRO     BB  105   4.524   3.532   6.239 -0.2327  0.1580 -0.0244
    2PRO    SC1  106   4.254   3.543   6.118 -0.2735  0.3128  0.0819
    3TYR     BB  107   4.561   3.754   6.413 -0.0785 -0.2008 -0.0751
    3TYR    SC1  108   4.741   3.879   6.590  0.0301 -0.0867  0.0006
    3TYR    SC2  109   4.997   3.960   6.559  0.0400 -0.1551 -0.1017
    3TYR    SC3  110   4.913   3.866   6.797  0.0104  0.2139  0.0421
    1TYR     BB  111   4.129   2.788   2.880 -0.0473 -0.0165  0.1152
    1TYR    SC1  112   4.316   2.691   2.694  0.1655 -0.0588 -0.1529
    1TYR    SC2  113   4.497   2.597   2.517  0.1484  0.1383 -0.2785
    1TYR    SC3  114   4.344   2.809   2.454 -0.2536 -0.1257 -0.2455
    2PRO     BB  115   4.294   2.923   3.132  0.1662  0.1102  0.1218
    2PRO    SC1  116   4.329   2.814   3.362  0.1284 -0.1001  0.0043
    3TYR     BB  117   4.422   3.197   3.130 -0.0603 -0.2215 -0.4755
    3TYR    SC1  118   4.740   3.151   3.133  0.0733  0.1121 -0.1274
    3TYR    SC2  119   4.899   3.259   2.942 -0.0016  0.4220 -0.0230
    3TYR    SC3  120   5.000   3.081   3.119  0.0740  0.1475 -0.3306
    1TYR     BB  121   4.468   4.259   7.325  0.0066 -0.3769 -0.2987
    1TYR    SC1  122   4.580   3.989   7.184  0.1119  0.0231 -0.3583
    1TYR    SC2  123   4.556   3.722   7.212  0.3145  0.0416  0.0941
    1TYR    SC3  124   4.500   3.838   6.975  0.0962 -0.3807 -0.0742
    2PRO     BB  125   4.177   4.189   7.334  0.1749 -0.0534 -0.0405
    2PRO    SC1  126   4.073   4.115   7.052 -0.3057  0.2870 -0.1420
    3TYR     BB  127   3.924   4.206   7.580  0.1490  0.1077 -0.0429
    3TYR    SC1  128   3.702   4.371   7.513 -0.3987 -0.1058  0.3001
    3TYR    SC2  129   3.443   4.446   7.502 -0.3260  0.1373 -0.3964
    3TYR    SC3  130   3.639   4.628   7.459 -0.0218 -0.0452  0.1052
    1TYR     BB  131   3.125   4.719   1.480  0.0527 -0.1668  0.1805
    1TYR    SC1  132   3.062   4.948   1.387 -0.0981  0.0691 -0.0413
    1TYR    SC2  133   2.998   5.082   1.161  0.1087 -0.0015 -0.1443
    1TYR    SC3  134   2.855   5.123   1.387 -0.3476 -0.2104 -0.3781
    2PRO     BB  135   3.443   4.602   1.315  0.1001 -0.0109  0.1069
    2PRO    SC1  136   3.449   4.351   1.317  0.0272  0.2854 -0.1065
    3TYR     BB  137   3.522   4.840   1.127  0.0150 -0.1977 -0.2199
    3TYR    SC1  138   3.351   4.799   0.913 -0.2469 -0.2201 -0.0788
    3TYR    SC2  139   3.277   4.684   0.680 -0.1075  0.0184 -0.2454
    3TYR    SC3  140   3.141   4.897   0.776  0.0719  0.1693 -0.3165
    1TYR     BB  141   4.835   4.245   5.588 -0.2150 -0.1384  0.0478
    1TYR    SC1  142   5.163   4.255   5.545 -0.1046 -0.1119  0.2015
    1TYR    SC2  143   5.359   4.248   5.360 -0.4757  0.5935 -0.2756
    1TYR    SC3  144   5.413   4.337   5.609 -0.0292 -0.1077 -0.0834
    2PRO     BB  145   4.795   4.550   5.627  0.0745  0.1677  0.0512
    2PRO    SC1  146   4.823   4.564   5.957  0.3834  0.0915  0.2012
    3TYR     BB  147   4.619   4.722   5.470 -0.1172  0.1163 -0.0066
    3TYR    SC1  148   4.706   4.872   5.208  0.1647  0.0939 -0.1296
    3TYR    SC2  149   4.656   5.045   5.009  0.0254 -0.1755 -0.3383
    3TYR    SC3  150   4.907   4.955   5.047  0.0889  0.0236 -0.2624
    1TYR     BB  151   4.733   3.893   4.158  0.2161 -0.1338 -0.0102
    1TYR    SC1  152   5.048   3.951   4.174  0.0922  0.0483  0.0012
    1TYR    SC2  153   5.243   3.887   3.998  0.1163 -0.3115  0.1464
    1TYR    SC3  154   5.296   4.052   4.205  0.0716  0.1662 -0.2045
    2PRO     BB  155   4.693   3.893   4.533 -0.0594 -0.0961  0.0610
    2PRO    SC1  156   4.792   3.713   4.747 -0.2523 -0.0271  0.3689
    3TYR     BB  157   4.490   4.113   4.670  0.0606  0.0480 -0.1170
    3TYR    SC1  158   4.468   4.016   4.962 -0.1447 -0.1753 -0.2145
    3TYR    SC2  159   4.355   3.825   5.115  0.0235 -0.0329  0.0997
    3TYR    SC3  160   4.609   3.901   5.162 -0.0161  0.2158 -0.0704
    1TYR     BB  161   3.366   5.064  -0.985  0.1066  0.3116 -0.0585
    1TYR    SC1  162   3.602   5.227  -1.035  0.1575 -0.0821  0.0858
    1TYR    SC2  163   3.800   5.361  -0.910 -0.0599  0.2363  0.1045
    1TYR    SC3  164   3.664   5.479  -1.111 -0.0824 -0.0640 -0.0630
    2PRO     BB  165   3.406   4.750  -1.028  0.1716 -0.0455 -0.0699
    2PRO    SC1  166   3.682   4.712  -1.127 -0.0612  0.1737  0.0568
    3TYR     BB  167   3.269   4.425  -1.111  0.1095  0.2364  0.1483
    3TYR    SC1  168   3.322   4.332  -1.410  0.3182  0.0763  0.0123
    3TYR    SC2  169   3.530   4.250  -1.561  0.2165 -0.1217 -0.0271
    3TYR    SC3  170   3.315   4.364  -1.677  0.2756  0.0299  0.0075
    1TYR     BB  171   4.552   4.240   2.368  0.2169 -0.0519 -0.1773
    1TYR    SC1  172   4.299   4.127   2.522  0.3689 -0.2871 -0.2582
    1TYR    SC2  173   4.050   4.031   2.563  0.1109  0.4742  0.2225
    1TYR    SC3  174   4.260   3.921   2.692  0.1147 -0.3483 -0.3859
    2PRO     BB  175   4.767   4.010   2.312  0.1046  0.3190 -0.0605
    2PRO    SC1  176   4.986   4.144   2.423  0.1840  0.1207  0.1632
    3TYR     BB  177   4.596   3.676   2.338  0.0333  0.1026  0.4861
    3TYR    SC1  178   4.287   3.645   2.281  0.1759 -0.1970 -0.1714
    3TYR    SC2  179   4.120   3.524   2.107 -0.2593  0.3083 -0.1401
    3TYR    SC3  180   4.023   3.636   2.332  0.2796 -0.2779  0.4390
    1TYR     BB  181   2.872   4.606   1.088  0.2467  0.1322  0.2795
    1TYR    SC1  182   2.666   4.694   1.300 -0.1376 -0.0609 -0.0920
    1TYR    SC2  183   2.472   4.569   1.440 -0.2482  0.0857 -0.1114
    1TYR    SC3  184   2.517   4.832   1.477 -0.2021  0.1014 -0.2690
    2PRO     BB  185   2.722   4.389   0.913 -0.1337 -0.2495  0.1390
    2PRO    SC1  186   2.810   4.477   0.635 -0.1866 -0.0282  0.3230
    3TYR     BB  187   2.349   4.476   0.957 -0.2728 -0.0248 -0.4587
    3TYR    SC1  188   2.292   4.233   1.122  0.0739 -0.0717 -0.1296
    3TYR    SC2  189   2.251   4.082   1.341  0.2031  0.0681 -0.0065
    3TYR    SC3  190   2.394   3.984   1.134 -0.2000 -0.1901 -0.1759
    1TYR     BB  191   4.862   4.920   1.830 -0.0452  0.3273 -0.0426
    1TYR    SC1  192   4.619   5.148   1.846 -0.1471 -0.1054  0.1043
    1TYR    SC2  193   4.519   5.361   1.713 -0.0928 -0.0743  0.1130
    1TYR    SC3  194   4.443   5.312   1.968 -0.1286 -0.0828  0.1007
    2PRO     BB  195   4.766   4.823   1.533  0.1723  0.1723  0.0871
    2PRO    SC1  196   5.002   4.800   1.364  0.3801  0.1768  0.3477
    3TYR     BB  197   4.455   4.821   1.426  0.2150  0.0931  0.0596
    3TYR    SC1  198   4.266   4.877   1.682 -0.0546 -0.0704  0.4065
    3TYR    SC2  199   4.106   5.059   1.799  0.1456  0.0750  0.4587
    3TYR    SC3  200   4.077   4.798   1.858 -0.1331  0.0887  0.3953
    1TYR     BB  201   2.929   4.108   3.827 -0.3118  0.3110 -0.1549
    1TYR    SC1  202   3.022   4.399   3.969  0.3496 -0.0067 -0.0756
    1TYR    SC2  203   3.051   4.665   4.003 -0.0306  0.0231  0.0819
    1TYR    SC3  204   2.851   4.536   4.128  0.0550 -0.3139 -0.1162
    2PRO     BB  205   2.826   3.841   4.039 -0.0198  0.3340 -0.2060
    2PRO    SC1  206   2.644   3.724   3.822  0.0977 -0.1089  0.2721
    3TYR     BB  207   2.560   3.714   4.262 -0.0921  0.0410 -0.0455
    3TYR    SC1  208   2.715   3.430   4.336  0.2884 -0.0942 -0.0718
    3TYR    SC2  209   2.697   3.169   4.402 -0.0500  0.0129  0.3126
    3TYR    SC3  210   2.610   3.254   4.160  0.2131 -0.2434  0.1188
    1TYR     BB  211   4.824   3.050   3.952  0.0576 -0.1867 -0.0157
    1TYR    SC1  212   5.035   3.249   4.070  0.4371 -0.1458  0.7366
    1TYR    SC2  213   5.250   3.394   3.994  0.1703 -0.0942 -0.0276
    1TYR    SC3  214   5.054   3.510   4.139  0.3549  0.0440  0.1183
    2PRO     BB  215   4.892   2.789   4.031 -0.3842 -0.2096  0.1659
    2PRO    SC1  216   5.238   2.772   3.964  0.0659  0.1876 -0.0011
    3TYR     BB  217   4.721   2.687   4.242  0.0735  0.1985 -0.0626
    3TYR    SC1  218   4.643   2.375   4.185  0.0304 -0.0845  0.1193
    3TYR    SC2  219   4.530   2.155   4.078  0.2205  0.0541 -0.4035
    3TYR    SC3  220   4.774   2.141   4.193  0.1714 -0.0307 -0.3079
    1TYR     BB  221   4.327   4.469   5.790  0.0955 -0.2627  0.2871
    1TYR    SC1  222   4.378   4.736   5.942 -0.0882 -0.1167 -0.1021
    1TYR    SC2  223   4.305   4.967   6.062 -0.1043 -0.3364  0.3360
    1TYR    SC3  224   4.533   4.957   5.917 -0.0899 -0.0547  0.3308
    2PRO     BB  225   4.422   4.234   5.896 -0.0780  0.0035 -0.2479
    2PRO    SC1  226   4.229   4.050   6.036  0.1014  0.0141  0.0290
    3TYR     BB  227   4.612   4.240   6.236 -0.1972  0.1414 -0.2373
    3TYR    SC1  228   4.542   4.493   6.356  0.1631 -0.0264 -0.0938
    3TYR    SC2  229   4.394   4.717   6.382 -0.0229 -0.1756  0.1978
    3TYR    SC3  230   4.655   4.720   6.452  0.1155  0.0756 -0.2716
    1TYR     BB  231   3.607   2.520   6.803  0.0681 -0.0059 -0.1293
    1TYR    SC1  232   3.412   2.736   6.725  0.1523  0.0409  0.0553
    1TYR    SC2  233   3.344   2.993   6.677 -0.0343 -0.0076  0.0506
    1TYR    SC3  234   3.155   2.816   6.754  0.2114  0.0440  0.8990
    2PRO     BB  235   3.852   2.576   6.570 -0.0588  0.1402 -0.3885
    2PRO    SC1  236   3.713   2.577   6.315  0.0502 -0.1768 -0.0377
    3TYR     BB  237   4.149   2.644   6.708 -0.2779 -0.0878 -0.1496
    3TYR    SC1  238   4.318   2.418   6.708 -0.0668 -0.2028  0.1600
    3TYR    SC2  239   4.567   2.316   6.730  0.0330  0.0001  0.0051
    3TYR    SC3  240   4.379   2.184   6.588  0.1758  0.0486 -0.2373
    1TYR     BB  241   3.570   2.981   6.117 -0.1201  0.3756 -0.3073
    1TYR    SC1  242   3.709   3.056   6.428 -0.0004 -0.1255 -0.0843
    1TYR    SC2  243   3.877   3.079   6.638 -0.3252  0.1340  0.1597
    1TYR    SC3  244   3.885   3.260   6.437 -0.0962 -0.0456  0.0004
    2PRO     BB  245   3.669   3.176   5.951 -0.1609  0.1088  0.1830
    2PRO    SC1  246   3.943   3.210   5.913 -0.0216 -0.2212  0.2918
    3TYR     BB  247   3.347   3.315   5.835  0.0408  0.1552 -0.0396
    3TYR    SC1  248   3.242   3.068   5.753 -0.1369  0.0952  0.1618
    3TYR    SC2  249   3.324   2.847   5.622 -0.1349 -0.0144  0.3439
    3TYR    SC3  250   3.067   2.868   5.703 -0.1932  0.1526  0.1270
    1TYR     BB  251   2.564   3.255   6.690 -0.0530  0.2108 -0.0144
    1TYR    SC1  252   2.410   3.539   6.633  0.3269  0.2398  0.1305
    1TYR    SC2  253   2.306   3.757   6.512  0.1998  0.0848 -0.0473
    1TYR    SC3  254   2.222   3.687   6.758  0.2164  0.2156 -0.0034
    2PRO     BB  255   2.892   3.254   6.842  0.0611  0.0898 -0.2482
    2PRO    SC1  256   3.066   3.441   6.724  0.1717  0.2936 -0.1323
    3TYR     BB  257   2.783   3.121   7.123  0.3034  0.0469  0.0373
    3TYR    SC1  258   2.573   2.908   7.066  0.0649 -0.0059 -0.1227
    3TYR    SC2  259   2.494   2.652   7.107 -0.0353  0.0613  0.1284
    3TYR    SC3  260   2.310   2.848   7.078  0.0394  0.1451  0.2097
    1TYR     BB  261   5.167   2.494   8.818  0.0777 -0.1303  0.1243
    1TYR    SC1  262   5.156   2.754   8.993  0.1121  0.2485 -0.2592
    1TYR    SC2  263   5.059   2.919   9.184  0.0246 -0.0217 -0.0618
    1TYR    SC3  264   5.320   2.930   9.115  0.0914 -0.0178  0.1810
    2PRO     BB  265   4.828   2.388   8.710  0.0117 -0.0565  0.0029
    2PRO    SC1  266   4.692   2.474   8.926 -0.0538  0.0742  0.1455
    3TYR     BB  267   4.682   2.398   8.464  0.2539  0.1579 -0.0134
    3TYR    SC1  268   4.578   2.148   8.311 -0.1564 -0.0142 -0.1611
    3TYR    SC2  269   4.592   1.888   8.241 -0.0516  0.0040 -0.2087
    3TYR    SC3  270   4.440   2.058   8.097 -0.3978 -0.0970  0.0225
    1TYR     BB  271   4.306   4.581   2.632  0.0614 -0.2100 -0.0910
    1TYR    SC1  272   4.050   4.486   2.500 -0.1898 -0.0257  0.1559
    1TYR    SC2  273   4.069   4.491   2.230 -0.0189  0.1053  0.1677
    1TYR    SC3  274   3.827   4.493   2.349 -0.0940  0.3005  0.0173
    2PRO     BB  275   4.499   4.366   2.974  0.1271  0.3222 -0.0816
    2PRO    SC1  276   4.724   4.243   2.824  0.3843 -0.1119  0.1229
    3TYR     BB  277   4.332   4.358   3.165 -0.4852  0.5722 -0.2299
    3TYR    SC1  278   4.234   4.597   3.297  0.0284 -0.1679  0.2503
    3TYR    SC2  279   4.277   4.847   3.388 -0.0863 -0.1249  0.1885
    3TYR    SC3  280   4.080   4.800   3.209 -0.0705 -0.2606  0.2054
    1TYR     BB  281   3.453   3.884   3.360 -0.1291 -0.1788  0.1865
    1TYR    SC1  282   3.284   3.800   3.580 -0.0821  0.0516 -0.0974
    1TYR    SC2  283   3.050   3.671   3.619 -0.0426  0.0541  0.1723
    1TYR    SC3  284   3.245   3.657   3.805  0.2169 -0.0362 -0.0956
    2PRO     BB  285   3.312   3.752   3.080  0.1917 -0.4074  0.1006
    2PRO    SC1  286   3.347   3.457   3.102  0.1619 -0.1227  0.3518
    3TYR     BB  287   3.342   3.986   2.832 -0.0253  0.2912 -0.0562
    3TYR    SC1  288   3.393   4.257   2.969  0.1083 -0.3673  0.1306
    3TYR    SC2  289   3.293   4.498   3.033 -0.1277 -0.3809 -0.1608
    3TYR    SC3  290   3.444   4.364   3.212  0.0570  0.0010 -0.0140
    1TYR     BB  291   3.794   2.499   1.970  0.1499 -0.0383  0.0503
    1TYR    SC1  292   3.842   2.530   2.261 -0.0024 -0.2279  0.0244
    1TYR    SC2  293   3.945   2.469   2.503 -0.2031 -0.1910  0.1219
    1TYR    SC3  294   3.868   2.722   2.450 -0.1691 -0.2012  0.0219
    2PRO     BB  295   3.784   2.157   1.964  0.1844  0.5873 -0.2062
    2PRO    SC1  296   3.507   2.077   1.984  0.1031 -0.3090  0.1053
    3TYR     BB  297   4.011   2.012   1.834  0.1812  0.0072  0.2667
    3TYR    SC1  298   4.263   2.127   1.746 -0.0182 -0.0613  0.1285
    3TYR    SC2  299   4.523   2.195   1.731  0.0002 -0.1670 -0.0706
    3TYR    SC3  300   4.360   2.237   1.520 -0.2473  0.2940  0.1939
    1TYR     BB  301   3.294   4.863  -0.551  0.0187 -0.1664 -0.1297
    1TYR    SC1  302   3.590   4.937  -0.554 -0.0592  0.2520 -0.3742
    1TYR    SC2  303   3.810   4.927  -0.711  0.1758  0.1057 -0.0501
    1TYR    SC3  304   3.824   5.038  -0.465 -0.0402 -0.1483  0.0841
    2PRO     BB  305   3.050   5.102  -0.503  0.0059 -0.1431  0.1071
    2PRO    SC1  306   2.836   5.174  -0.312  0.1498  0.1188 -0.0120
    3TYR     BB  307   3.068   5.358  -0.712  0.0709  0.1066 -0.3454
    3TYR    SC1  308   3.336   5.460  -0.669  0.1938 -0.4575 -0.0540
    3TYR    SC2  309   3.573   5.405  -0.553  0.2812  0.1482  0.0921
    3TYR    SC3  310   3.528   5.649  -0.661 -0.2958  0.0689  0.1146
    1TYR     BB  311   3.091   4.866  -1.945  0.0989 -0.1423  0.3180
    1TYR    SC1  312   2.958   4.651  -2.092  0.0328  0.3744 -0.0803
    1TYR    SC2  313   3.030   4.505  -2.307 -0.0923  0.0348  0.0986
    1TYR    SC3  314   2.770   4.526  -2.240 -0.0568  0.1591  0.2013
    2PRO     BB  315   3.308   5.064  -2.153 -0.3187 -0.0270  0.1301
    2PRO    SC1  316   3.440   5.247  -1.977  0.1445 -0.0382 -0.0493
    3TYR     BB  317   3.219   4.984  -2.465 -0.0023 -0.3102  0.0102
    3TYR    SC1  318   2.936   5.073  -2.499 -0.0428  0.4540  0.2119
    3TYR    SC2  319   2.717   5.066  -2.340 -0.1245  0.0877  0.0922
    3TYR    SC3  320   2.745   5.264  -2.522 -0.5262 -0.0363 -0.1192
    1TYR     BB  321   4.530   4.568   7.701  0.4167  0.1131 -0.1033
    1TYR    SC1  322   4.431   4.321   7.929  0.3029 -0.0403  0.0416
    1TYR    SC2  323   4.228   4.148   7.965  0.0700  0.2204  0.0256
    1TYR    SC3  324   4.428   4.160   8.145  0.0548 -0.0132  0.0621
    2PRO     BB  325   4.207   4.665   7.612  0.3904 -0.0677  0.2667
    2PRO    SC1  326   4.039   4.585   7.802  0.0474  0.3468  0.0101
    3TYR     BB  327   4.144   4.726   7.349  0.1398 -0.0591  0.1305
    3TYR    SC1  328   4.170   4.642   7.032 -0.2081  0.0077  0.1036
    3TYR    SC2  329   4.109   4.557   6.783 -0.1313 -0.1396  0.1344
    3TYR    SC3  330   4.298   4.747   6.818 -0.2006 -0.0592  0.0752
    1TYR     BB  331   3.685   5.535   0.162  0.2654 -0.1749  0.0957
    1TYR    SC1  332   3.695   5.731  -0.093 -0.0711  0.2627  0.3503
    1TYR    SC2  333   3.515   5.899  -0.203 -0.0810  0.1699  0.2219
    1TYR    SC3  334   3.778   5.938  -0.246 -0.0928  0.0223  0.0009
    2PRO     BB  335   3.710   5.239   0.285 -0.0008 -0.3512 -0.2491
    2PRO    SC1  336   3.863   5.076   0.113 -0.0787 -0.0546 -0.0397
    3TYR     BB  337   3.487   5.114   0.532 -0.0553 -0.0190  0.0647
    3TYR    SC1  338   3.165   5.182   0.362 -0.2594 -0.2016 -0.0114
    3TYR    SC2  339   2.982   5.215   0.165 -0.0810 -0.2302 -0.1862
    3TYR    SC3  340   2.935   5.042   0.367 -0.2993 -0.1448 -0.1607
    1TYR     BB  341   5.065   1.984   9.539 -0.0564 -0.1572 -0.1815
    1TYR    SC1  342   4.800   1.828   9.609  0.2481  0.3384 -0.0816
    1TYR    SC2  343   4.691   1.641   9.770  0.2381  0.0646 -0.3936
    1TYR    SC3  344   4.532   1.805   9.626  0.2472  0.2319 -0.2180
    2PRO     BB  345   5.038   2.312   9.554 -0.1381  0.1858 -0.3148
    2PRO    SC1  346   5.030   2.408   9.329  0.1265  0.0154  0.0675
    3TYR     BB  347   5.121   2.287   9.938 -0.2826 -0.1552 -0.1054
    3TYR    SC1  348   4.870   2.114   9.998 -0.1712  0.0203  0.2317
    3TYR    SC2  349   4.617   2.156   9.915 -0.1067 -0.2531 -0.1403
    3TYR    SC3  350   4.669   1.964  10.098 -0.1531 -0.2969 -0.1729
    1TYR     BB  351   4.009   5.963   0.247  0.0036 -0.0692  0.3107
    1TYR    SC1  352   3.891   5.859   0.530  0.1074 -0.0872  0.1006
    1TYR    SC2  353   3.975   5.647   0.675  0.4918 -0.1031 -0.1274
    1TYR    SC3  354   3.745   5.773   0.740  0.3658 -0.4528  0.1424
    2PRO     BB  355   4.236   5.904   0.081  0.0207 -0.1672  0.0011
    2PRO    SC1  356   4.472   6.051   0.210 -0.1053  0.3610 -0.1309
    3TYR     BB  357   4.329   5.786  -0.180  0.2799  0.3545  0.2588
    3TYR    SC1  358   4.149   5.631  -0.349 -0.3819 -0.0127 -0.0561
    3TYR    SC2  359   3.971   5.612  -0.552 -0.2473 -0.5018 -0.1453
    3TYR    SC3  360   3.943   5.458  -0.332 -0.2086 -0.2128  0.0699
    1TYR     BB  361   3.948   1.908   8.925  0.1592 -0.1396 -0.1724
    1TYR    SC1  362   3.847   2.167   9.051  0.5215  0.2174  0.0696
    1TYR    SC2  363   3.840   2.433   9.097  0.1320  0.2090  0.0982
    1TYR    SC3  364   3.625   2.280   9.153  0.2668 -0.0786 -0.1329
    2PRO     BB  365   4.095   2.089   8.611  0.1357  0.0038 -0.1128
    2PRO    SC1  366   4.304   2.200   8.748 -0.1027 -0.1385  0.0929
    3TYR     BB  367   4.012   2.078   8.371 -0.2085  0.1401  0.1278
    3TYR    SC1  368   4.162   2.325   8.168  0.1552 -0.1478 -0.0750
    3TYR    SC2  369   4.062   2.557   8.073 -0.0346 -0.2035 -0.0167
    3TYR    SC3  370   4.319   2.489   8.022 -0.0695 -0.1340 -0.3080
    1TYR     BB  371   2.633   2.853   2.588 -0.0737 -0.0132  0.3586
    1TYR    SC1  372   2.600   2.979   2.860  0.1167 -0.1330  0.2115
    1TYR    SC2  373   2.668   3.149   3.059  0.1004 -0.1312  0.2156
    1TYR    SC3  374   2.526   2.926   3.115 -0.2571  0.0724  0.1548
    2PRO     BB  375   2.937   2.617   2.651  0.1986  0.2010  0.2258
    2PRO    SC1  376   2.811   2.433   2.472 -0.0881 -0.1256 -0.0696
    3TYR     BB  377   3.142   2.448   2.858 -0.0069 -0.1072 -0.1552
    3TYR    SC1  378   3.437   2.540   2.865  0.0087 -0.1065  0.1167
    3TYR    SC2  379   3.620   2.728   2.798  0.0222 -0.1227  0.1083
    3TYR    SC3  380   3.700   2.492   2.900  0.0062 -0.1319  0.0996
    1TYR     BB  381   4.121   4.446   4.546 -0.1477  0.0970  0.1350
    1TYR    SC1  382   4.024   4.708   4.385  0.1523 -0.0019  0.1490
    1TYR    SC2  383   4.137   4.951   4.365  0.0583  0.0377  0.0925
    1TYR    SC3  384   4.044   4.828   4.144 -0.1358  0.0672  0.1553
    2PRO     BB  385   4.033   4.196   4.355 -0.0708  0.1455 -0.0730
    2PRO    SC1  386   3.755   4.243   4.362  0.1330  0.0893 -0.2576
    3TYR     BB  387   4.233   3.954   4.275  0.2482  0.2036 -0.1096
    3TYR    SC1  388   4.191   3.685   4.377 -0.1493  0.1329  0.3121
    3TYR    SC2  389   4.114   3.451   4.485  0.1623 -0.0441  0.1666
    3TYR    SC3  390   4.269   3.621   4.627  0.3110 -0.1340  0.1143
    1TYR     BB  391   3.682   3.737   4.349 -0.3187 -0.1689 -0.2094
    1TYR    SC1  392   3.663   3.519   4.534 -0.0480 -0.0370 -0.0530
    1TYR    SC2  393   3.482   3.326   4.585 -0.0353  0.0084  0.1741
    1TYR    SC3  394   3.661   3.397   4.774  0.5232 -0.3498 -0.1839
    2PRO     BB  395   3.347   3.776   4.257 -0.0875  0.0570 -0.0761
    2PRO    SC1  396   3.368   4.026   4.098 -0.1351  0.2434 -0.0581
    3TYR     BB  397   3.101   3.698   4.463 -0.2665  0.1028 -0.0030
    3TYR    SC1  398   2.935   3.961   4.488  0.2936  0.0298  0.0981
    3TYR    SC2  399   2.865   4.182   4.625  0.1308  0.0459 -0.0089
    3TYR    SC3  400   2.835   4.175   4.356  0.2057 -0.0790 -0.0142
    1TYR     BB  401   4.570   3.002   8.925  0.0082 -0.2017 -0.3306
    1TYR    SC1  402   4.760   2.915   8.739 -0.3672 -0.0108 -0.2024
    1TYR    SC2  403   5.007   2.998   8.668 -0.3395  0.1259  0.0377
    1TYR    SC3  404   4.845   2.882   8.485 -0.0248 -0.1578 -0.0754
    2PRO     BB  405   4.478   3.329   8.894  0.0722  0.1223  0.3069
    2PRO    SC1  406   4.721   3.440   8.803  0.0397  0.0403  0.0257
    3TYR     BB  407   4.149   3.573   8.973 -0.0024  0.0667 -0.2875
    3TYR    SC1  408   3.997   3.354   9.144  0.0270  0.0256 -0.0014
    3TYR    SC2  409   3.760   3.227   9.170 -0.1331  0.2792 -0.1718
    3TYR    SC3  410   3.920   3.261   9.385 -0.1590 -0.0629 -0.0925
    1TYR     BB  411   3.881   3.787   7.945  0.1488  0.2701  0.1053
    1TYR    SC1  412   3.620   3.789   7.776  0.0061 -0.1407 -0.1387
    1TYR    SC2  413   3.423   3.731   7.601 -0.3757 -0.4011  0.3447
    1TYR    SC3  414   3.480   3.989   7.660 -0.1189 -0.2966 -0.2616
    2PRO     BB  415   3.769   4.064   8.182  0.2311  0.2364 -0.2995
    2PRO    SC1  416   3.704   4.274   8.044 -0.5511  0.0552  0.3033
    3TYR     BB  417   3.612   3.945   8.433  0.1122 -0.0128  0.0058
    3TYR    SC1  418   3.576   3.642   8.349 -0.0344 -0.2489 -0.0700
    3TYR    SC2  419   3.526   3.393   8.257 -0.0980 -0.3500  0.2226
    3TYR    SC3  420   3.366   3.502   8.445  0.1240 -0.2215  0.3420
    1TYR     BB  421   3.470   2.835   8.419 -0.1174  0.0976  0.0701
    1TYR    SC1  422   3.194   2.741   8.593  0.3183 -0.3910 -0.0962
    1TYR    SC2  423   3.003   2.552   8.612 -0.0581 -0.0006  0.2546
    1TYR    SC3  424   3.026   2.741   8.804  0.2915  0.3258 -0.0872
    2PRO     BB  425   3.821   2.805   8.406  0.1917 -0.0958  0.0759
    2PRO    SC1  426   3.881   3.013   8.199 -0.2980  0.1044  0.0397
    3TYR     BB  427   3.856   2.535   8.624  0.2618  0.0936  0.0319
    3TYR    SC1  428   3.638   2.373   8.629 -0.1060  0.0597 -0.0066
    3TYR    SC2  429   3.409   2.301   8.506 -0.0963  0.0021  0.0092
    3TYR    SC3  430   3.463   2.210   8.755  0.0488 -0.1709 -0.0828
    1TYR     BB  431   3.704   5.550   5.342 -0.0474 -0.0191 -0.3321
    1TYR    SC1  432   3.453   5.467   5.191 -0.0573  0.0308 -0.0352
    1TYR    SC2  433   3.184   5.453   5.169 -0.0607 -0.1902  0.1062
    1TYR    SC3  434   3.339   5.427   4.950 -0.1580  0.2890 -0.0345
    2PRO     BB  435   4.013   5.448   5.080  0.0131 -0.4226  0.1842
    2PRO    SC1  436   3.882   5.359   4.847  0.2628  0.0942  0.2752
    3TYR     BB  437   4.349   5.453   5.040 -0.1688 -0.0449  0.0622
    3TYR    SC1  438   4.436   5.351   4.767  0.2564 -0.1542  0.0771
    3TYR    SC2  439   4.380   5.283   4.512  0.2230  0.1356  0.0030
    3TYR    SC3  440   4.619   5.217   4.620  0.2234 -0.0200 -0.0883
    1TYR     BB  441   4.894   3.812   8.162 -0.0466  0.0069  0.0140
    1TYR    SC1  442   4.735   3.952   7.908 -0.0152 -0.3152 -0.0509
    1TYR    SC2  443   4.647   3.918   7.655 -0.2193  0.0268 -0.0346
    1TYR    SC3  444   4.810   4.125   7.715 -0.1702 -0.0531  0.1156
    2PRO     BB  445   5.105   3.678   7.968 -0.3238  0.1295  0.1267
    2PRO    SC1  446   5.034   3.524   7.724  0.1862  0.0328  0.0021
    3TYR     BB  447   5.379   3.815   7.815  0.1532  0.0092 -0.0198
    3TYR    SC1  448   5.526   3.615   7.662 -0.0896  0.2640 -0.3946
    3TYR    SC2  449   5.561   3.353   7.606 -0.0659  0.1637  0.0474
    3TYR    SC3  450   5.767   3.525   7.580 -0.1050  0.1647 -0.3321
    1TYR     BB  451   5.354   3.853   5.724  0.3033  0.0763 -0.0122
    1TYR    SC1  452   5.120   3.735   5.907 -0.4841  0.0015 -0.2010
    1TYR    SC2  453   5.047   3.678   6.160 -0.1968  0.0823 -0.0948
    1TYR    SC3  454   5.039   3.486   5.972 -0.2013 -0.0379  0.0262
    2PRO     BB  455   5.263   3.704   5.439  0.1661  0.3203 -0.0275
    2PRO    SC1  456   5.136   3.835   5.242 -0.1486  0.0853  0.2791
    3TYR     BB  457   5.078   3.355   5.459 -0.0248 -0.1356 -0.2488
    3TYR    SC1  458   4.823   3.450   5.360 -0.3050  0.1959  0.2075
    3TYR    SC2  459   4.717   3.447   5.112  0.0801  0.3256  0.0325
    3TYR    SC3  460   4.555   3.461   5.327 -0.2925 -0.2321 -0.1799
    1TYR     BB  461   3.417   4.795   2.177  0.0593 -0.0438  0.2104
    1TYR    SC1  462   3.618   5.045   2.173  0.0310  0.0215  0.3196
    1TYR    SC2  463   3.763   5.165   2.366  0.2289 -0.2966  0.3807
    1TYR    SC3  464   3.814   5.217   2.106 -0.0761  0.1764  0.4011
    2PRO     BB  465   3.326   4.540   1.897 -0.1623 -0.2200 -0.1025
    2PRO    SC1  466   3.607   4.477   1.922 -0.2193 -0.1932  0.1567
    3TYR     BB  467   3.138   4.384   2.084 -0.4728  0.2055  0.1189
    3TYR    SC1  468   3.193   4.392   2.391  0.1461  0.2079 -0.0183
    3TYR    SC2  469   3.188   4.578   2.587 -0.1281  0.0473  0.1354
    3TYR    SC3  470   3.414   4.439   2.538 -0.0073  0.2115  0.2184
    1TYR     BB  471   2.306   4.538   2.190 -0.0658  0.2301 -0.0236
    1TYR    SC1  472   2.256   4.463   2.508  0.1581 -0.1371  0.2315
    1TYR    SC2  473   2.364   4.540   2.742  0.1413 -0.2071  0.2631
    1TYR    SC3  474   2.224   4.311   2.729 -0.5425  0.1668  0.3756
    2PRO     BB  475   2.504   4.344   1.970  0.1292 -0.0638  0.0994
    2PRO    SC1  476   2.353   4.142   1.822 -0.0762  0.1112  0.2362
    3TYR     BB  477   2.742   4.474   1.822  0.3551 -0.0704  0.0318
    3TYR    SC1  478   2.843   4.345   1.568  0.1406  0.0347  0.0641
    3TYR    SC2  479   2.967   4.215   1.366  0.1335 -0.1187  0.1567
    3TYR    SC3  480   2.714   4.149   1.435  0.0048  0.1757 -0.0147
    1TYR     BB  481   4.027   3.707   6.564  0.4200  0.0242  0.0589
    1TYR    SC1  482   4.011   3.602   6.858  0.0364 -0.1260 -0.1342
    1TYR    SC2  483   4.193   3.506   7.033  0.0579 -0.0136 -0.0934
    1TYR    SC3  484   3.988   3.349   6.951 -0.1272  0.0264  0.2671
    2PRO     BB  485   3.980   4.031   6.627 -0.0342  0.0560  0.0962
    2PRO    SC1  486   4.212   4.134   6.486  0.1972 -0.1934 -0.2333
    3TYR     BB  487   3.755   4.175   6.586 -0.1653 -0.0748  0.2649
    3TYR    SC1  488   3.632   4.340   6.867  0.0304  0.1518 -0.1543
    3TYR    SC2  489   3.485   4.404   7.084 -0.1658  0.0623 -0.2578
    3TYR    SC3  490   3.728   4.514   7.049  0.0271 -0.1857  0.1879
    1TYR     BB  491   4.887   3.347   3.572  0.1231  0.2662  0.0397
    1TYR    SC1  492   5.135   3.160   3.589  0.1941  0.2185 -0.3427
    1TYR    SC2  493   5.398   3.154   3.651  0.1455 -0.0802 -0.1352
    1TYR    SC3  494   5.299   2.983   3.467  0.0828 -0.0186 -0.1595
    2PRO     BB  495   4.981   3.671   3.493 -0.1163 -0.0676 -0.3678
    2PRO    SC1  496   4.808   3.773   3.710  0.1764 -0.2006  0.1120
    3TYR     BB  497   5.087   3.624   3.207  0.5292 -0.1376  0.2823
    3TYR    SC1  498   4.853   3.702   3.009  0.0542  0.1195 -0.2627
    3TYR    SC2  499   4.837   3.695   2.740 -0.1373 -0.2662 -0.2507
    3TYR    SC3  500   4.614   3.664   2.889 -0.0041 -0.2694 -0.0472
    1TYR     BB  501   2.620   3.290   2.300 -0.2550 -0.4157  0.1537
    1TYR    SC1  502   2.425   3.082   2.129 -0.1902 -0.0206  0.0140
    1TYR    SC2  503   2.408   3.037   1.864 -0.3183  0.0887  0.0025
    1TYR    SC3  504   2.244   2.907   2.034 -0.0556 -0.1858  0.0560
    2PRO     BB  505   2.405   3.441   2.533 -0.1805  0.2240  0.0971
    2PRO    SC1  506   2.243   3.221   2.590 -0.0277 -0.0197 -0.1103
    3TYR     BB  507   2.476   3.625   2.798 -0.0172 -0.3645 -0.1990
    3TYR    SC1  508   2.624   3.605   3.063 -0.3025 -0.1061  0.0019
    3TYR    SC2  509   2.868   3.663   3.164 -0.1304 -0.1614 -0.3624
    3TYR    SC3  510   2.657   3.632   3.330  0.0251  0.2620 -0.0630
    1TYR     BB  511   4.208   4.486   1.092 -0.1223 -0.1847 -0.0638
    1TYR    SC1  512   4.220   4.580   0.845 -0.1237  0.0543  0.1454
    1TYR    SC2  513   4.132   4.438   0.632 -0.2526  0.2898  0.0368
    1TYR    SC3  514   4.353   4.592   0.610 -0.0280  0.0038  0.1961
    2PRO     BB  515   3.945   4.417   1.198 -0.2423 -0.5415  0.0118
    2PRO    SC1  516   3.911   4.380   1.492 -0.0478  0.2309  0.0369
    3TYR     BB  517   3.730   4.377   0.924 -0.0089  0.1003 -0.0595
    3TYR    SC1  518   3.749   4.609   0.731  0.2347 -0.0591 -0.0001
    3TYR    SC2  519   3.831   4.755   0.519  0.0877 -0.0335 -0.0405
    3TYR    SC3  520   3.856   4.854   0.769  0.0060  0.0544 -0.0663
    1TYR     BB  521   4.473   3.285   2.597 -0.0230 -0.1295  0.0856
    1TYR    SC1  522   4.661   3.019   2.618  0.5268 -0.1847 -0.3985
    1TYR    SC2  523   4.916   2.934   2.644  0.4243 -0.4016  0.0178
    1TYR    SC3  524   4.721   2.822   2.794  0.1305 -0.0276 -0.0673
    2PRO     BB  525   4.230   3.316   2.722  0.5113  0.0151  0.2205
    2PRO    SC1  526   4.097   3.527   2.852  0.1347 -0.1203 -0.0660
    3TYR     BB  527   3.922   3.171   2.572 -0.0331 -0.1698 -0.3858
    3TYR    SC1  528   3.682   3.388   2.614 -0.2139 -0.1344 -0.0385
    3TYR    SC2  529   3.612   3.638   2.539 -0.2490 -0.2559 -0.4396
    3TYR    SC3  530   3.424   3.467   2.631 -0.1595 -0.0071  0.2842
    1TYR     BB  531   2.935   3.842   7.733  0.2798  0.0190 -0.1986
    1TYR    SC1  532   3.039   4.040   7.486 -0.1542  0.0927  0.1078
    1TYR    SC2  533   2.885   4.115   7.277 -0.0127  0.3040  0.0760
    1TYR    SC3  534   3.108   4.255   7.338  0.1478  0.0274  0.1464
    2PRO     BB  535   2.617   3.818   7.715  0.0978  0.0289 -0.1828
    2PRO    SC1  536   2.486   3.859   7.467 -0.0098  0.2171  0.0753
    3TYR     BB  537   2.427   3.658   7.919  0.2676 -0.1354 -0.0611
    3TYR    SC1  538   2.511   3.352   8.061 -0.2088  0.0056  0.0901
    3TYR    SC2  539   2.589   3.130   8.194 -0.1426  0.0659  0.1533
    3TYR    SC3  540   2.622   3.145   7.926  0.0857  0.0988  0.1814
    1TYR     BB  541   4.451   4.531   4.926 -0.4192 -0.3247  0.1278
    1TYR    SC1  542   4.736   4.467   5.049 -0.1549  0.0929 -0.0769
    1TYR    SC2  543   4.918   4.283   5.126 -0.0936  0.0883 -0.2283
    1TYR    SC3  544   4.995   4.538   5.084 -0.1508  0.1180 -0.1551
    2PRO     BB  545   4.244   4.439   5.192  0.1135 -0.1496  0.0016
    2PRO    SC1  546   4.369   4.274   5.375 -0.0700  0.1122 -0.1837
    3TYR     BB  547   3.932   4.531   5.262 -0.2082  0.1104  0.2819
    3TYR    SC1  548   3.734   4.788   5.225 -0.0779 -0.1008 -0.0764
    3TYR    SC2  549   3.654   4.988   5.063  0.0023  0.0064  0.0140
    3TYR    SC3  550   3.767   5.045   5.301  0.1586 -0.1441 -0.0215
    1TYR     BB  551   4.215   4.957   5.341 -0.1592 -0.0603  0.2585
    1TYR    SC1  552   4.123   4.946   5.038 -0.1555 -0.1904 -0.2238
    1TYR    SC2  553   4.245   4.970   4.799 -0.0788  0.0164 -0.1665
    1TYR    SC3  554   4.016   4.828   4.819  0.0467 -0.2166 -0.3112
    2PRO     BB  555   4.273   5.215   5.503 -0.0957  0.0826  0.0736
    2PRO    SC1  556   4.590   5.274   5.546  0.0709  0.0614 -0.0931
    3TYR     BB  557   4.108   5.404   5.622 -0.2210  0.1820  0.2964
    3TYR    SC1  558   4.123   5.517   5.924 -0.1262 -0.1605  0.0056
    3TYR    SC2  559   4.251   5.453   6.153  0.0038  0.1006  0.0123
    3TYR    SC3  560   4.011   5.576   6.163 -0.0125  0.0696  0.0064
    1TYR     BB  561   3.366   3.392   6.321 -0.0678  0.1849  0.3345
    1TYR    SC1  562   3.173   3.164   6.332 -0.3065 -0.0190  0.1234
    1TYR    SC2  563   2.936   3.055   6.399 -0.2354 -0.2002  0.0846
    1TYR    SC3  564   3.098   2.928   6.224 -0.1749 -0.0042 -0.0037
    2PRO     BB  565   3.530   3.546   6.546  0.1188 -0.2549 -0.1770
    2PRO    SC1  566   3.537   3.440   6.782 -0.3824 -0.0428 -0.3018
    3TYR     BB  567   3.398   3.875   6.507  0.2141 -0.0613 -0.3212
    3TYR    SC1  568   3.204   3.908   6.740 -0.0029 -0.2452  0.3388
    3TYR    SC2  569   2.967   3.956   6.861 -0.0997  0.1055  0.0365
    3TYR    SC3  570   3.185   4.099   6.931 -0.0677  0.0499  0.0512
    1TYR     BB  571   3.438   2.642   7.341  0.0310 -0.0368  0.0542
    1TYR    SC1  572   3.328   2.432   7.542  0.0136  0.1438  0.1391
    1TYR    SC2  573   3.332   2.230   7.722  0.2230  0.0801  0.0662
    1TYR    SC3  574   3.096   2.327   7.634  0.1199 -0.0752  0.1658
    2PRO     BB  575   3.215   2.877   7.281  0.2945  0.3907 -0.0144
    2PRO    SC1  576   3.307   3.136   7.186 -0.2814 -0.1499  0.2417
    3TYR     BB  577   2.983   2.957   7.524 -0.1016  0.2962 -0.5128
    3TYR    SC1  578   2.793   2.729   7.547  0.0222 -0.0067  0.2998
    3TYR    SC2  579   2.530   2.668   7.542  0.0042  0.0639 -0.1562
    3TYR    SC3  580   2.713   2.486   7.461  0.0687  0.1252 -0.1493
    1TYR     BB  581   4.521   4.455   4.278 -0.0206 -0.0330 -0.1024
    1TYR    SC1  582   4.734   4.408   4.080 -0.1787 -0.0430 -0.0252
    1TYR    SC2  583   4.862   4.253   3.900 -0.1358  0.0210 -0.0502
    1TYR    SC3  584   4.972   4.486   3.979 -0.1857  0.0244  0.0100
    2PRO     BB  585   4.598   4.783   4.353 -0.0062  0.4196  0.0560
    2PRO    SC1  586   4.560   4.915   4.047  0.0078 -0.1453  0.2801
    3TYR     BB  587   4.811   4.753   4.640  0.4303  0.1309 -0.1337
    3TYR    SC1  588   4.906   4.483   4.632  0.3246  0.0675  0.1549
    3TYR    SC2  589   4.962   4.234   4.722 -0.0757  0.0650  0.4308
    3TYR    SC3  590   4.985   4.292   4.459 -0.0972 -0.2984  0.3436
    1TYR     BB  591   5.059   4.608   7.674  0.0982 -0.0612  0.2219
    1TYR    SC1  592   5.214   4.694   7.876 -0.1026  0.2213 -0.0653
    1TYR    SC2  593   5.307   4.931   7.968 -0.0666  0.1361  0.1241
    1TYR    SC3  594   5.385   4.701   8.085  0.0645  0.0127 -0.1902
    2PRO     BB  595   4.896   4.856   7.458 -0.0542  0.0815  0.1299
    2PRO    SC1  596   4.987   5.149   7.547  0.3360 -0.2304  0.3051
    3TYR     BB  597   4.628   4.757   7.218 -0.0422 -0.1781 -0.2340
    3TYR    SC1  598   4.800   4.769   6.949 -0.1127  0.1539  0.2069
    3TYR    SC2  599   4.898   4.920   6.747 -0.2630  0.4994  0.3801
    3TYR    SC3  600   5.058   4.743   6.873 -0.2319  0.0753 -0.2036
    1TYR     BB  601   2.875   3.533   1.363  0.0783  0.0028 -0.1160
    1TYR    SC1  602   3.072   3.747   1.270  0.1828  0.1721 -0.2383
    1TYR    SC2  603   3.312   3.733   1.146  0.2340 -0.0841 -0.1180
    1TYR    SC3  604   3.281   3.892   1.361  0.2621  0.0377 -0.2027
    2PRO     BB  605   2.890   3.292   1.209  0.1134  0.1715  0.3802
    2PRO    SC1  606   3.184   3.208   1.168 -0.0217 -0.2081 -0.3162
    3TYR     BB  607   2.750   3.235   0.942  0.0276 -0.2360 -0.1372
    3TYR    SC1  608   2.667   2.961   0.946 -0.1284 -0.1879  0.0282
    3TYR    SC2  609   2.542   2.794   1.117 -0.5602  0.0421 -0.0432
    3TYR    SC3  610   2.554   2.735   0.854 -0.3863 -0.0453 -0.0179
    1TYR     BB  611   4.494   5.686  -0.775  0.2113 -0.2254  0.1855
    1TYR    SC1  612   4.743   5.558  -0.916 -0.0885 -0.2143 -0.2171
    1TYR    SC2  613   4.891   5.357  -1.018  0.0166 -0.1528 -0.1881
    1TYR    SC3  614   4.944   5.612  -1.088 -0.0451 -0.1265 -0.1402
    2PRO     BB  615   4.317   5.697  -1.078  0.1182 -0.0653 -0.1107
    2PRO    SC1  616   4.059   5.780  -1.056  0.0454 -0.1286  0.1808
    3TYR     BB  617   4.541   5.833  -1.304 -0.2234  0.1475 -0.0691
    3TYR    SC1  618   4.690   5.569  -1.424  0.1212 -0.1261  0.4042
    3TYR    SC2  619   4.700   5.388  -1.624 -0.0007  0.2275  0.0631
    3TYR    SC3  620   4.925   5.451  -1.488  0.1380  0.1561 -0.1264
    1TYR     BB  621   3.956   4.104   3.350  0.1838  0.1111  0.0377
    1TYR    SC1  622   3.840   4.042   3.644 -0.2924 -0.0918 -0.0101
    1TYR    SC2  623   3.855   4.088   3.909 -0.0332  0.0888 -0.0511
    1TYR    SC3  624   3.736   3.864   3.818 -0.2819  0.1080  0.2072
    2PRO     BB  625   3.856   4.106   3.164  0.0122 -0.0295 -0.1022
    2PRO    SC1  626   3.779   3.887   2.997 -0.1169 -0.2672 -0.0199
    3TYR     BB  627   3.912   4.382   2.938  0.2038  0.1376 -0.0452
    3TYR    SC1  628   3.738   4.627   2.849  0.0372  0.1629  0.0598
    3TYR    SC2  629   3.516   4.773   2.805 -0.0247  0.0903  0.1283
    3TYR    SC3  630   3.735   4.812   2.653 -0.1014  0.1255  0.0251
    1TYR     BB  631   3.798   2.496   7.613  0.0826 -0.0103 -0.2048
    1TYR    SC1  632   3.666   2.441   7.878 -0.1572  0.0400  0.0766
    1TYR    SC2  633   3.556   2.448   8.125 -0.2034 -0.1592  0.0645
    1TYR    SC3  634   3.671   2.222   8.035  0.2761  0.0548  0.0977
    2PRO     BB  635   3.944   2.792   7.648 -0.0037  0.0012  0.0026
    2PRO    SC1  636   3.780   2.986   7.549  0.2856  0.1013 -0.2080
    3TYR     BB  637   4.292   2.724   7.555 -0.1058 -0.0424  0.2999
    3TYR    SC1  638   4.366   3.004   7.457 -0.1275  0.2184  0.0409
    3TYR    SC2  639   4.394   3.157   7.237  0.0178  0.2488  0.0796
    3TYR    SC3  640   4.391   3.272   7.481  0.3114  0.1792  0.1208
    1TYR     BB  641   5.175   2.948   7.026 -0.0276  0.1847 -0.0062
    1TYR    SC1  642   5.071   2.665   6.970  0.1139 -0.0152 -0.1254
    1TYR    SC2  643   4.987   2.439   7.088 -0.0432  0.0391 -0.1303
    1TYR    SC3  644   5.051   2.439   6.825  0.0773 -0.0267 -0.1020
    2PRO     BB  645   4.914   3.145   7.097  0.0777  0.2251 -0.1381
    2PRO    SC1  646   4.842   3.145   7.415  0.0953 -0.4012 -0.1086
    3TYR     BB  647   4.746   3.371   6.954 -0.2143  0.1071  0.1019
    3TYR    SC1  648   4.511   3.331   6.776  0.0931  0.0293 -0.2213
    3TYR    SC2  649   4.374   3.104   6.722  0.0735  0.0238 -0.1502
    3TYR    SC3  650   4.298   3.338   6.610 -0.0738  0.0445 -0.0116
    1TYR     BB  651   4.868   2.671   7.474 -0.2301 -0.1762 -0.2834
    1TYR    SC1  652   5.167   2.807   7.603  0.3680 -0.1893 -0.3093
    1TYR    SC2  653   5.208   2.990   7.798  0.4604 -0.3018 -0.2209
    1TYR    SC3  654   5.296   3.038   7.547 -0.1178  0.0833 -0.3786
    2PRO     BB  655   4.761   2.511   7.724  0.0629  0.1473 -0.1159
    2PRO    SC1  656   4.687   2.261   7.718  0.3320  0.0398 -0.1416
    3TYR     BB  657   4.829   2.643   8.051 -0.1666 -0.1703 -0.0037
    3TYR    SC1  658   4.613   2.877   8.041 -0.1202 -0.0009  0.0363
    3TYR    SC2  659   4.384   2.996   7.962 -0.1584  0.1652  0.3775
    3TYR    SC3  660   4.618   3.063   7.845 -0.2262  0.3229  0.3286
    1TYR     BB  661   2.818   4.240   6.435 -0.0804  0.0743 -0.0793
    1TYR    SC1  662   2.787   4.500   6.285 -0.2430  0.2249 -0.1416
    1TYR    SC2  663   2.837   4.592   6.036  0.3971  0.2428 -0.0285
    1TYR    SC3  664   2.716   4.752   6.217  0.0851  0.2898 -0.2677
    2PRO     BB  665   2.869   4.007   6.273 -0.1924 -0.0530  0.0783
    2PRO    SC1  666   2.886   4.111   5.966  0.0437  0.0451 -0.2850
    3TYR     BB  667   2.848   3.681   6.371  0.0533  0.0011 -0.1193
    3TYR    SC1  668   2.877   3.509   6.125 -0.4878  0.0072 -0.0018
    3TYR    SC2  669   2.880   3.483   5.856 -0.1060 -0.2733  0.0180
    3TYR    SC3  670   2.865   3.263   6.013  0.1919 -0.1569  0.2213
    1TYR     BB  671   4.378   2.763   5.673  0.0277 -0.0937  0.0213
    1TYR    SC1  672   4.037   2.716   5.677 -0.0794  0.2639 -0.1442
    1TYR    SC2  673   3.876   2.651   5.883  0.1703 -0.2460 -0.0905
    1TYR    SC3  674   3.777   2.789   5.673 -0.1022  0.2489  0.3324
    2PRO     BB  675   4.388   3.097   5.877  0.2311  0.0248  0.1964
    2PRO    SC1  676   4.647   3.239   5.782 -0.1370  0.0061 -0.1443
    3TYR     BB  677   4.256   3.007   6.179 -0.2461 -0.0490 -0.0021
    3TYR    SC1  678   4.274   2.697   6.216 -0.2582  0.0705 -0.5260
    3TYR    SC2  679   4.159   2.460   6.155  0.1210 -0.2885  0.0318
    3TYR    SC3  680   4.421   2.470   6.218  0.1095  0.2857  0.0493
    1TYR     BB  681   2.910   4.489  -0.777  0.0182 -0.2188  0.2244
    1TYR    SC1  682   2.920   4.779  -0.918  0.0455  0.3136  0.0168
    1TYR    SC2  683   2.861   4.938  -1.127 -0.1928  0.0604 -0.1165
    1TYR    SC3  684   2.746   4.983  -0.887 -0.3133  0.0495 -0.1714
    2PRO     BB  685   2.634   4.517  -0.620  0.0184 -0.0725  0.2950
    2PRO    SC1  686   2.589   4.755  -0.445 -0.1103 -0.0574 -0.1244
    3TYR     BB  687   2.397   4.295  -0.486 -0.0261 -0.0449  0.4231
    3TYR    SC1  688   2.266   4.408  -0.262 -0.1085  0.1047 -0.0253
    3TYR    SC2  689   2.273   4.618  -0.094 -0.0437  0.2909 -0.2560
    3TYR    SC3  690   2.075   4.438  -0.073  0.1179  0.1490  0.2042
    1TYR     BB  691   3.478   4.595  -2.092  0.0678 -0.2343  0.2574
    1TYR    SC1  692   3.670   4.326  -2.055  0.1255  0.0771  0.3485
    1TYR    SC2  693   3.906   4.201  -2.019  0.0392 -0.1493  0.1562
    1TYR    SC3  694   3.678   4.090  -1.925 -0.0357 -0.1280  0.0043
    2PRO     BB  695   3.664   4.785  -1.931  0.0744 -0.1839  0.2489
    2PRO    SC1  696   3.940   4.753  -1.962  0.0738  0.3732 -0.1506
    3TYR     BB  697   3.584   4.767  -1.630 -0.0915  0.1065 -0.0400
    3TYR    SC1  698   3.391   4.858  -1.506 -0.1192 -0.2050 -0.2985
    3TYR    SC2  699   3.149   4.762  -1.436 -0.1635  0.2382  0.2323
    3TYR    SC3  700   3.183   5.026  -1.478  0.0803  0.1078 -0.6051
    1TYR     BB  701   3.767   4.502   3.530 -0.1778 -0.1114  0.1142
    1TYR    SC1  702   4.036   4.519   3.728  0.1530 -0.0551 -0.2600
    1TYR    SC2  703   4.296   4.571   3.779  0.1509 -0.2091 -0.0795
    1TYR    SC3  704   4.149   4.434   3.958  0.0189 -0.3726 -0.3073
    2PRO     BB  705   3.539   4.533   3.711  0.3166 -0.0383  0.0291
    2PRO    SC1  706   3.364   4.286   3.676  0.1044  0.3008  0.2897
    3TYR     BB  707   3.561   4.642   4.093  0.1725  0.2002  0.0964
    3TYR    SC1  708   3.387   4.552   4.297  0.1222 -0.0193 -0.3060
    3TYR    SC2  709   3.220   4.375   4.415  0.0626  0.1182 -0.1805
    3TYR    SC3  710   3.191   4.639   4.460  0.5047  0.1315  0.0984
    1TYR     BB  711   4.094   2.434   7.181  0.1132  0.1508 -0.0517
    1TYR    SC1  712   3.943   2.691   7.165 -0.1306 -0.0844 -0.2561
    1TYR    SC2  713   3.776   2.882   7.073 -0.0396 -0.0667 -0.3885
    1TYR    SC3  714   4.036   2.940   7.119 -0.0808 -0.0771 -0.1205
    2PRO     BB  715   4.423   2.487   7.156 -0.0806  0.1719  0.0911
    2PRO    SC1  716   4.557   2.244   7.221  0.1863  0.1880  0.0111
    3TYR     BB  717   4.579   2.789   7.051  0.2493  0.0231  0.0341
    3TYR    SC1  718   4.660   2.752   6.767  0.0727  0.0583  0.1157
    3TYR    SC2  719   4.851   2.864   6.612  0.2872 -0.4810 -0.0418
    3TYR    SC3  720   4.631   2.756   6.498 -0.1121  0.0856  0.1344
    1TYR     BB  721   3.442   3.996   4.695 -0.0782  0.1992  0.3376
    1TYR    SC1  722   3.753   4.031   4.795  0.0185  0.2431  0.0088
    1TYR    SC2  723   3.992   3.914   4.751 -0.1328 -0.1016  0.0641
    1TYR    SC3  724   3.977   4.135   4.903  0.1317 -0.1844  0.2204
    2PRO     BB  725   3.201   3.934   4.930  0.0116  0.0971  0.0525
    2PRO    SC1  726   3.274   3.638   4.975 -0.1681  0.5235  0.0182
    3TYR     BB  727   2.984   4.080   5.102  0.2249  0.0508  0.0428
    3TYR    SC1  728   2.786   3.935   5.316  0.3223 -0.1232  0.1142
    3TYR    SC2  729   2.732   3.752   5.505  0.1537  0.0277  0.2176
    3TYR    SC3  730   2.563   3.958   5.467  0.1736 -0.0116 -0.1150
    1TYR     BB  731   4.608   5.380   0.513  0.0400  0.1207  0.1960
    1TYR    SC1  732   4.779   5.444   0.754  0.1833  0.2468 -0.1838
    1TYR    SC2  733   4.869   5.668   0.873  0.3624  0.2566 -0.3339
    1TYR    SC3  734   5.037   5.460   0.831  0.1389 -0.0141  0.0423
    2PRO     BB  735   4.384   5.555   0.458  0.2484  0.0929 -0.1172
    2PRO    SC1  736   4.417   5.780   0.673  0.2753 -0.2607  0.1604
    3TYR     BB  737   4.175   5.474   0.248 -0.2769 -0.0374 -0.0709
    3TYR    SC1  738   4.339   5.328   0.058  0.2629  0.0247 -0.1283
    3TYR    SC2  739   4.261   5.191  -0.162  0.1701  0.0449 -0.1083
    3TYR    SC3  740   4.421   5.073   0.020 -0.3839 -0.2660  0.2145
    1TYR     BB  741   4.628   4.128   1.880  0.0034 -0.1026  0.1937
    1TYR    SC1  742   4.517   3.906   1.784 -0.3561  0.0258  0.2684
    1TYR    SC2  743   4.517   3.717   1.591  0.1285  0.1711  0.1077
    1TYR    SC3  744   4.453   3.651   1.845  0.2008 -0.1881  0.0393
    2PRO     BB  745   4.529   4.399   1.891 -0.2928 -0.2091 -0.0718
    2PRO    SC1  746   4.357   4.408   1.643  0.0959 -0.2155  0.0400
    3TYR     BB  747   4.515   4.639   2.033  0.1460 -0.0095 -0.2094
    3TYR    SC1  748   4.682   4.700   2.242 -0.3003 -0.0863 -0.1899
    3TYR    SC2  749   4.772   4.637   2.489 -0.3544  0.1141 -0.1166
    3TYR    SC3  750   4.727   4.894   2.423 -0.2667  0.0705 -0.3630
    1TYR     BB  751   3.024   2.836   3.157  0.3185 -0.1176  0.0371
    1TYR    SC1  752   3.183   3.013   2.956  0.2792  0.3956  0.0559
    1TYR    SC2  753   3.421   3.078   2.846  0.4011 -0.2874 -0.1373
    1TYR    SC3  754   3.203   3.052   2.689  0.2883 -0.0699 -0.0212
    2PRO     BB  755   2.999   2.973   3.423 -0.0654 -0.1266 -0.0073
    2PRO    SC1  756   3.040   3.241   3.444  0.0741 -0.1411 -0.2691
    3TYR     BB  757   2.989   2.818   3.683 -0.4457  0.1092  0.2064
    3TYR    SC1  758   3.282   2.750   3.750  0.2864  0.1863 -0.2750
    3TYR    SC2  759   3.426   2.948   3.864  0.0860  0.1692  0.0211
    3TYR    SC3  760   3.551   2.750   3.731  0.3280  0.2116  0.1770
    1TYR     BB  761   4.434   2.715   3.816  0.0007  0.1251 -0.2114
    1TYR    SC1  762   4.558   2.458   3.720  0.1742 -0.2213  0.4768
    1TYR    SC2  763   4.695   2.237   3.648  0.3441  0.0068  0.0562
    1TYR    SC3  764   4.428   2.248   3.611  0.3199 -0.1560  0.1657
    2PRO     BB  765   4.229   2.861   3.914  0.0726 -0.2490  0.2718
    2PRO    SC1  766   4.286   3.010   4.175  0.0702  0.2474  0.1379
    3TYR     BB  767   3.948   3.039   3.653  0.2145  0.0951  0.2093
    3TYR    SC1  768   3.907   3.262   3.879 -0.1843 -0.0515  0.1414
    3TYR    SC2  769   3.717   3.434   3.966 -0.1469  0.2225 -0.2829
    3TYR    SC3  770   3.897   3.332   4.139 -0.8414 -0.2931  0.2068
    1TYR     BB  771   2.403   3.296   1.351  0.2635 -0.1847  0.3659
    1TYR    SC1  772   2.125   3.303   1.532  0.1934  0.0949  0.1527
    1TYR    SC2  773   1.856   3.332   1.544  0.1499  0.0750 -0.4244
    1TYR    SC3  774   1.991   3.237   1.758 -0.2999  0.0551 -0.1323
    2PRO     BB  775   2.329   3.479   1.111 -0.2902 -0.1963 -0.1792
    2PRO    SC1  776   2.041   3.603   1.143  0.1243  0.0031 -0.0089
    3TYR     BB  777   2.398   3.583   0.826 -0.1438 -0.2102 -0.3450
    3TYR    SC1  778   2.464   3.866   0.717 -0.4097 -0.1991 -0.4062
    3TYR    SC2  779   2.648   3.966   0.547 -0.0784 -0.0497  0.0174
    3TYR    SC3  780   2.432   4.113   0.614 -0.0859 -0.0123 -0.0869
    1TYR     BB  781   3.911   3.609   3.391  0.2559  0.3297  0.0027
    1TYR    SC1  782   4.193   3.683   3.313  0.0878 -0.3911 -0.0618
    1TYR    SC2  783   4.455   3.690   3.380  0.0060  0.1221  0.2809
    1TYR    SC3  784   4.358   3.860   3.193 -0.0450 -0.2642 -0.0616
    2PRO     BB  785   3.794   3.424   3.326 -0.0425  0.2370  0.2714
    2PRO    SC1  786   3.559   3.345   3.523  0.1943  0.1059  0.4163
    3TYR     BB  787   3.891   3.181   3.091  0.1519 -0.0096  0.0752
    3TYR    SC1  788   3.742   2.948   3.187 -0.1506 -0.0978 -0.1737
    3TYR    SC2  789   3.712   2.702   3.293 -0.0039 -0.0888 -0.1086
    3TYR    SC3  790   3.506   2.877   3.296 -0.0310 -0.1221  0.0773
    1TYR     BB  791   4.192   3.616   3.798  0.0762 -0.5942  0.0172
    1TYR    SC1  792   4.295   3.926   3.807 -0.0682  0.0135 -0.0140
    1TYR    SC2  793   4.449   4.144   3.849 -0.1972  0.1011  0.0095
    1TYR    SC3  794   4.359   4.088   3.601 -0.0294 -0.0176 -0.0267
    2PRO     BB  795   4.396   3.441   3.864  0.0517  0.0944  0.1849
    2PRO    SC1  796   4.393   3.236   3.645  0.0193  0.1486 -0.0779
    3TYR     BB  797   4.543   3.424   4.134 -0.0671 -0.0126 -0.0006
    3TYR    SC1  798   4.625   3.353   4.422 -0.2948 -0.1885  0.0762
    3TYR    SC2  799   4.589   3.165   4.614 -0.0714 -0.3044  0.0094
    3TYR    SC3  800   4.811   3.160   4.460 -0.0109  0.0742  0.0708
    1TYR     BB  801   3.525   4.071   1.734  0.0187  0.2120 -0.4249
    1TYR    SC1  802   3.221   4.026   1.781  0.1663  0.0206  0.1029
    1TYR    SC2  803   3.117   3.779   1.810  0.2115 -0.0411 -0.2181
    1TYR    SC3  804   2.960   3.983   1.729  0.2001  0.0113 -0.0667
    2PRO     BB  805   3.803   3.858   1.490  0.0584  0.1372  0.3736
    2PRO    SC1  806   3.795   3.947   1.212  0.0304  0.0774 -0.0184
    3TYR     BB  807   3.930   3.743   1.735  0.1130 -0.1533 -0.4364
    3TYR    SC1  808   4.086   3.940   1.889 -0.2138 -0.0514  0.1782
    3TYR    SC2  809   4.037   4.203   1.920  0.0569  0.0184  0.0516
    3TYR    SC3  810   4.186   4.071   2.102  0.3098  0.0631 -0.1167
    1TYR     BB  811   3.275   4.250   8.559  0.1856 -0.0016  0.3026
    1TYR    SC1  812   3.030   4.056   8.590 -0.2474 -0.1688  0.0121
    1TYR    SC2  813   3.012   3.801   8.503  0.1329 -0.1635 -0.1030
    1TYR    SC3  814   2.814   3.906   8.653 -0.0190 -0.5326 -0.0309
    2PRO     BB  815   3.187   4.205   8.138  0.0200  0.0064 -0.2827
    2PRO    SC1  816   3.227   3.927   8.094  0.1963 -0.1024  0.3581
    3TYR     BB  817   3.121   4.354   7.892  0.0257 -0.0201  0.0490
    3TYR    SC1  818   2.802   4.295   7.869  0.1192 -0.1031  0.0389
    3TYR    SC2  819   2.533   4.288   7.845  0.1043  0.1587  0.0936
    3TYR    SC3  820   2.688   4.316   7.625  0.1088 -0.3234  0.0224
    1TYR     BB  821   3.668   4.533   4.766 -0.2291  0.1138  0.2229
    1TYR    SC1  822   3.590   4.781   4.662 -0.0945 -0.1658  0.1186
    1TYR    SC2  823   3.433   5.002   4.654 -0.2757 -0.2966 -0.3416
    1TYR    SC3  824   3.669   5.000   4.524  0.1758 -0.0790  0.3956
    2PRO     BB  825   3.420   4.448   4.961 -0.0923 -0.0402  0.2082
    2PRO    SC1  826   3.132   4.550   4.944 -0.2404  0.0454 -0.0984
    3TYR     BB  827   3.447   4.300   5.162  0.0273  0.0429 -0.3460
    3TYR    SC1  828   3.598   4.026   5.250  0.0196  0.2093 -0.4244
    3TYR    SC2  829   3.853   3.965   5.310 -0.0694  0.1989 -0.0253
    3TYR    SC3  830   3.690   3.776   5.205 -0.0051  0.1067  0.0377
    1TYR     BB  831   4.110   3.977   8.497 -0.1727 -0.0406 -0.0722
    1TYR    SC1  832   4.290   4.049   8.776  0.0889  0.1291 -0.2042
    1TYR    SC2  833   4.337   4.043   9.042  0.0233 -0.2266 -0.1932
    1TYR    SC3  834   4.503   3.914   8.873  0.0169 -0.0731 -0.3206
    2PRO     BB  835   4.229   3.734   8.392  0.1285  0.0631  0.3828
    2PRO    SC1  836   4.504   3.695   8.466  0.1084 -0.2989  0.2626
    3TYR     BB  837   4.047   3.503   8.341  0.4029 -0.2327  0.0788
    3TYR    SC1  838   3.886   3.398   8.598  0.1609 -0.0281 -0.5011
    3TYR    SC2  839   3.669   3.250   8.661  0.1814  0.1376  0.0150
    3TYR    SC3  840   3.699   3.497   8.766  0.5381  0.1892 -0.1878
    1TYR     BB  841   4.795   4.116   3.291 -0.1124 -0.2082 -0.3922
    1TYR    SC1  842   4.792   4.410   3.439  0.1130  0.0040  0.1167
    1TYR    SC2  843   4.686   4.589   3.611  0.2608  0.1109  0.0993
    1TYR    SC3  844   4.732   4.658   3.354 -0.2643 -0.1450 -0.0818
    2PRO     BB  845   5.144   4.095   3.252 -0.1921 -0.3080  0.1780
    2PRO    SC1  846   5.183   4.109   3.556 -0.1623 -0.0628  0.1961
    3TYR     BB  847   5.197   4.081   2.963  0.1306  0.2230  0.2261
    3TYR    SC1  848   5.277   3.888   2.742 -0.0195 -0.0927 -0.1359
    3TYR    SC2  849   5.228   3.717   2.538  0.0708 -0.1385 -0.1203
    3TYR    SC3  850   5.278   3.622   2.785  0.2397 -0.0951 -0.1360
    1TYR     BB  851   3.279   3.027   5.099  0.2719  0.2992  0.2727
    1TYR    SC1  852   3.458   3.188   5.288  0.0708 -0.0314  0.2039
    1TYR    SC2  853   3.659   3.197   5.468  0.0299 -0.0484  0.2505
    1TYR    SC3  854   3.669   3.351   5.247 -0.0402  0.1661  0.3921
    2PRO     BB  855   3.125   3.026   4.791  0.0725  0.4589  0.0704
    2PRO    SC1  856   3.037   3.283   4.724  0.0234  0.2271  0.0133
    3TYR     BB  857   3.142   2.881   4.471  0.2913  0.1163 -0.0635
    3TYR    SC1  858   3.100   3.081   4.241 -0.1286 -0.0203  0.0778
    3TYR    SC2  859   3.202   3.322   4.174  0.1260 -0.1514 -0.0223
    3TYR    SC3  860   3.017   3.204   4.016 -0.0901  0.0295  0.0908
    1TYR     BB  861   5.242   3.919   9.794 -0.1283 -0.1933  0.0765
    1TYR    SC1  862   5.114   4.181   9.647  0.1393  0.1400  0.0466
    1TYR    SC2  863   5.059   4.356   9.449  0.1009 -0.0027 -0.0706
    1TYR    SC3  864   5.045   4.434   9.707  0.3945  0.2554 -0.1266
    2PRO     BB  865   5.202   3.608   9.616 -0.0019  0.2198  0.3167
    2PRO    SC1  866   4.929   3.649   9.591 -0.0226 -0.1451 -0.0413
    3TYR     BB  867   5.515   3.454   9.604 -0.0177 -0.0379  0.0635
    3TYR    SC1  868   5.587   3.178   9.749 -0.2709 -0.2324 -0.4582
    3TYR    SC2  869   5.628   3.035   9.974 -0.1741  0.2826 -0.1276
    3TYR    SC3  870   5.835   3.092   9.810 -0.2013  0.1095 -0.2252
    1TYR     BB  871   5.122   4.497   6.407  0.2274  0.3854 -0.2085
    1TYR    SC1  872   5.115   4.760   6.316 -0.0623 -0.1334 -0.1402
    1TYR    SC2  873   4.991   5.000   6.313 -0.2471 -0.1991  0.4896
    1TYR    SC3  874   5.257   4.988   6.355 -0.2263 -0.1066  0.3934
    2PRO     BB  875   5.276   4.238   6.160  0.5098  0.4424  0.0233
    2PRO    SC1  876   5.067   4.168   6.055 -0.1539  0.3586  0.0740
    3TYR     BB  877   5.454   4.057   6.336  0.1407  0.0313 -0.3637
    3TYR    SC1  878   5.394   4.132   6.632  0.0057 -0.3183 -0.0533
    3TYR    SC2  879   5.311   4.226   6.871  0.0471 -0.1598 -0.0990
    3TYR    SC3  880   5.399   3.972   6.848 -0.0898 -0.2199  0.0235
    1TYR     BB  881   3.351   2.796   7.873  0.2239  0.0414 -0.0644
    1TYR    SC1  882   3.368   3.131   7.797 -0.2805  0.2132  0.0661
    1TYR    SC2  883   3.515   3.356   7.793  0.1317 -0.0409 -0.2540
    1TYR    SC3  884   3.318   3.321   7.612  0.1442  0.0119 -0.2783
    2PRO     BB  885   3.114   2.731   7.963  0.0882 -0.1418  0.3785
    2PRO    SC1  886   3.094   2.448   8.102 -0.0051 -0.0375  0.3610
    3TYR     BB  887   3.006   2.924   8.169  0.0927 -0.0614  0.3031
    3TYR    SC1  888   2.992   3.257   8.176 -0.1702  0.1109 -0.0508
    3TYR    SC2  889   2.914   3.516   8.204  0.3683  0.2917 -0.0807
    3TYR    SC3  890   3.077   3.445   8.001 -0.0168 -0.1468 -0.2599
    1TYR     BB  891   3.334   5.337   1.376  0.1290 -0.2578 -0.0964
    1TYR    SC1  892   3.447   5.177   1.535 -0.0542 -0.1607 -0.0632
    1TYR    SC2  893   3.669   5.213   1.685 -0.0429 -0.0492 -0.1054
    1TYR    SC3  894   3.550   4.970   1.676  0.0753 -0.1092 -0.0804
    2PRO     BB  895   3.499   5.391   1.100  0.1682  0.1690 -0.1149
    2PRO    SC1  896   3.299   5.413   0.853 -0.0777  0.1079 -0.0370
    3TYR     BB  897   3.751   5.288   0.943 -0.2515 -0.1070 -0.0769
    3TYR    SC1  898   3.893   5.118   1.121  0.0978  0.1873 -0.0816
    3TYR    SC2  899   4.078   4.931   1.182  0.1746  0.2526 -0.1112
    3TYR    SC3  900   3.903   5.014   1.370 -0.0747 -0.0832 -0.1826
    1TYR     BB  901   4.405   2.181   2.775 -0.2492 -0.1251  0.0746
    1TYR    SC1  902   4.746   2.233   2.759 -0.0004 -0.0776 -0.3177
    1TYR    SC2  903   4.984   2.277   2.879 -0.3743  0.2073  0.3903
    1TYR    SC3  904   4.896   2.445   2.685 -0.0333  0.1225  0.1500
    2PRO     BB  905   4.423   2.410   3.088 -0.3804 -0.1646  0.0411
    2PRO    SC1  906   4.133   2.391   3.143 -0.3979  0.2492  0.0348
    3TYR     BB  907   4.651   2.504   3.154  0.1305  0.1469 -0.0879
    3TYR    SC1  908   4.796   2.603   3.372 -0.0089  0.4095 -0.0588
    3TYR    SC2  909   4.840   2.838   3.498  0.1749  0.1797  0.3307
    3TYR    SC3  910   4.994   2.624   3.555 -0.0198 -0.0538  0.0207
    1TYR     BB  911   4.044   2.881   5.242 -0.2851  0.0596  0.0246
    1TYR    SC1  912   4.351   2.880   5.192  0.1711 -0.0488 -0.2217
    1TYR    SC2  913   4.538   3.023   5.325 -0.0666  0.0805 -0.0163
    1TYR    SC3  914   4.550   3.003   5.056  0.1152  0.2737 -0.0263
    2PRO     BB  915   3.921   3.011   4.942 -0.0595 -0.0686 -0.1988
    2PRO    SC1  916   4.094   2.993   4.715 -0.0078  0.2016  0.4789
    3TYR     BB  917   3.647   2.869   4.829 -0.0504 -0.0031  0.1181
    3TYR    SC1  918   3.615   2.891   4.501 -0.3207 -0.1429 -0.1714
    3TYR    SC2  919   3.805   2.872   4.310  0.0749  0.0507  0.1832
    3TYR    SC3  920   3.592   3.035   4.273  0.0459 -0.0558 -0.1605
    1TYR     BB  921   3.009   4.674  -0.155  0.3168  0.1125 -0.0036
    1TYR    SC1  922   2.792   4.757   0.052  0.0164  0.2415  0.3743
    1TYR    SC2  923   2.586   4.786   0.224 -0.3740  0.0423 -0.0323
    1TYR    SC3  924   2.605   4.948   0.007 -0.0361  0.1217  0.0485
    2PRO     BB  925   3.224   4.878  -0.065  0.0379 -0.0981 -0.0850
    2PRO    SC1  926   3.359   4.780   0.186  0.0244  0.0531 -0.1846
    3TYR     BB  927   3.439   5.132  -0.119 -0.1477 -0.0426 -0.1436
    3TYR    SC1  928   3.297   5.366  -0.144 -0.0185 -0.0820 -0.0327
    3TYR    SC2  929   3.164   5.562  -0.275  0.0300 -0.1734 -0.2220
    3TYR    SC3  930   3.192   5.575  -0.007 -0.3086 -0.1226 -0.1831
    1TYR     BB  931   4.663   3.255   9.788 -0.0341  0.2493 -0.0499
    1TYR    SC1  932   4.944   3.241   9.989 -0.0429 -0.1806  0.1867
    1TYR    SC2  933   5.211   3.282   9.984 -0.0706  0.0739 -0.4798
    1TYR    SC3  934   5.073   3.316  10.213  0.4574 -0.0637 -0.1198
    2PRO     BB  935   4.646   3.226   9.480  0.1634 -0.2505  0.0537
    2PRO    SC1  936   4.383   3.178   9.364  0.1527  0.2892 -0.1950
    3TYR     BB  937   4.856   3.336   9.283  0.1804  0.2627 -0.0203
    3TYR    SC1  938   5.132   3.354   9.177 -0.5669  0.0879  0.0359
    3TYR    SC2  939   5.198   3.339   8.915 -0.1645 -0.3788  0.1453
    3TYR    SC3  940   5.324   3.514   9.077 -0.2661 -0.2348  0.0708
    1TYR     BB  941   3.592   3.539   2.084 -0.2790  0.0142  0.0933
    1TYR    SC1  942   3.501   3.407   1.791 -0.1972 -0.2145  0.0390
    1TYR    SC2  943   3.438   3.510   1.550 -0.2402 -0.2374  0.0403
    1TYR    SC3  944   3.287   3.313   1.655 -0.1703 -0.2879  0.0466
    2PRO     BB  945   3.493   3.828   2.149  0.4038  0.0300  0.1508
    2PRO    SC1  946   3.677   4.047   2.269  0.1629 -0.1645 -0.4108
    3TYR     BB  947   3.225   3.945   2.281 -0.0261 -0.1584  0.0285
    3TYR    SC1  948   2.931   3.873   2.243 -0.0249 -0.2093 -0.1560
    3TYR    SC2  949   2.708   3.757   2.342  0.0093 -0.2443 -0.1190
    3TYR    SC3  950   2.705   3.867   2.095 -0.1674  0.1216  0.0341
    1TYR     BB  951   4.797   2.780   9.883  0.0632 -0.2877 -0.0313
    1TYR    SC1  952   5.053   2.902   9.692  0.1261  0.1098  0.4380
    1TYR    SC2  953   5.231   3.064   9.569 -0.0637 -0.0374 -0.0639
    1TYR    SC3  954   5.280   2.799   9.589 -0.0490 -0.0196  0.1638
    2PRO     BB  955   4.627   2.658   9.677 -0.2038 -0.2509 -0.2554
    2PRO    SC1  956   4.659   2.744   9.400 -0.1883 -0.1214  0.1685
    3TYR     BB  957   4.280   2.536   9.767 -0.2623 -0.1412  0.0856
    3TYR    SC1  958   4.159   2.835   9.727 -0.2922  0.0010 -0.1596
    3TYR    SC2  959   4.198   3.086   9.817  0.1692 -0.0905 -0.0704
    3TYR    SC3  960   3.948   2.999   9.766 -0.0291  0.2746  0.2098
    1TYR     BB  961   3.249   3.802   6.037  0.2774  0.0497 -0.0056
    1TYR    SC1  962   3.560   3.789   6.055 -0.0541  0.3933 -0.2550
    1TYR    SC2  963   3.792   3.878   6.160  0.0161  0.2254 -0.2628
    1TYR    SC3  964   3.748   3.612   6.135 -0.5369  0.1915  0.5845
    2PRO     BB  965   3.267   3.846   5.673 -0.0764  0.2152  0.0080
    2PRO    SC1  966   3.191   4.085   5.574 -0.0239 -0.0219  0.2908
    3TYR     BB  967   3.239   3.615   5.448 -0.1091  0.0395 -0.0258
    3TYR    SC1  968   2.997   3.433   5.398  0.1452 -0.0612  0.2178
    3TYR    SC2  969   2.877   3.267   5.222  0.3693 -0.1004  0.0971
    3TYR    SC3  970   2.900   3.195   5.480 -0.0601  0.0044  0.1759
    1TYR     BB  971   4.795   4.524   8.200 -0.0351  0.1267  0.2687
    1TYR    SC1  972   4.989   4.314   8.150 -0.2393 -0.3933 -0.0318
    1TYR    SC2  973   5.212   4.203   8.255  0.2307  0.5023  0.0221
    1TYR    SC3  974   5.182   4.217   7.987  0.0627  0.0907  0.0131
    2PRO     BB  975   4.827   4.826   8.205  0.1734  0.1462 -0.0131
    2PRO    SC1  976   4.815   4.976   7.974  0.0182 -0.0432 -0.0220
    3TYR     BB  977   5.052   4.941   8.422  0.0384  0.1284 -0.1413
    3TYR    SC1  978   5.179   4.693   8.529 -0.0486 -0.0143  0.2712
    3TYR    SC2  979   5.100   4.448   8.613  0.1574 -0.0222  0.4514
    3TYR    SC3  980   5.356   4.490   8.537  0.0788  0.0935  0.2361
    1TYR     BB  981   2.829   3.413   7.538 -0.2436  0.0665  0.0690
    1TYR    SC1  982   2.521   3.358   7.550  0.1464 -0.0153 -0.2877
    1TYR    SC2  983   2.407   3.117   7.507 -0.1709  0.0398  0.1585
    1TYR    SC3  984   2.268   3.312   7.632  0.2234  0.3180  0.1868
    2PRO     BB  985   2.882   3.599   7.281  0.0186  0.2736  0.3009
    2PRO    SC1  986   3.170   3.662   7.199 -0.1458  0.1047 -0.1554
    3TYR     BB  987   2.658   3.657   7.042 -0.2344 -0.1651 -0.1765
    3TYR    SC1  988   2.421   3.514   7.135  0.0541 -0.0465  0.0344
    3TYR    SC2  989   2.275   3.290   7.097 -0.3772  0.2777 -0.3566
    3TYR    SC3  990   2.158   3.514   7.195  0.1158  0.2686  0.3470
    1TYR     BB  991   4.746   4.333   9.065 -0.1520 -0.0355 -0.0430
    1TYR    SC1  992   4.848   4.033   9.111 -0.0011  0.0042 -0.1305
    1TYR    SC2  993   5.087   3.944   9.196 -0.0695  0.0060  0.0699
    1TYR    SC3  994   4.915   3.775   9.074  0.0046 -0.0118 -0.0114
    2PRO     BB  995   4.642   4.385   8.743 -0.0147 -0.0182  0.0198
    2PRO    SC1  996   4.673   4.667   8.709  0.1637 -0.0140  0.3438
    3TYR     BB  997   4.718   4.170   8.534  0.1176 -0.1401  0.1333
    3TYR    SC1  998   4.910   3.978   8.651  0.2189 -0.1017  0.3669
    3TYR    SC2  999   5.050   3.750   8.614  0.4056  0.0974 -0.3515
    3TYR    SC3 1000   5.161   3.959   8.747  0.2842 -0.1597  0.1884
   7.69165   7.69165   7.69165
