Martini system from ../2_Creating_coordinates/TYR-TRP-TYR_aa.pdb
 4380
    1TYR     BB    1   4.286   5.727   5.736
    1TYR    SC1    2   4.110   5.892   5.932
    1TYR    SC2    3   4.122   6.101   5.813
    1TYR    SC3    4   3.890   6.148   5.866
    2TRP     BB    5   4.085   5.900   5.469
    2TRP    SC1    6   4.284   5.784   5.257
    2TRP    SC2    7   4.288   5.877   5.065
    2TRP    SC3    8   4.576   5.766   5.240
    2TRP    SC4    9   4.595   5.866   5.039
    3TYR     BB   10   4.101   6.178   5.306
    3TYR    SC1   11   3.890   6.332   5.435
    3TYR    SC2   12   3.883   6.548   5.329
    3TYR    SC3   13   3.640   6.547   5.336
    1TYR     BB   14   7.114   3.510   1.528
    1TYR    SC1   15   7.246   3.255   1.408
    1TYR    SC2   16   7.249   3.329   1.179
    1TYR    SC3   17   7.466   3.225   1.145
    2TRP     BB   18   7.354   3.694   1.303
    2TRP    SC1   19   7.202   3.958   1.372
    2TRP    SC2   20   7.229   4.124   1.241
    2TRP    SC3   21   6.918   4.032   1.385
    2TRP    SC4   22   6.932   4.207   1.245
    3TYR     BB   23   7.358   3.796   0.998
    3TYR    SC1   24   7.537   3.601   0.875
    3TYR    SC2   25   7.556   3.657   0.642
    3TYR    SC3   26   7.794   3.606   0.646
    1TYR     BB   27   3.082   3.747   0.409
    1TYR    SC1   28   3.098   3.490   0.233
    1TYR    SC2   29   3.314   3.535   0.137
    1TYR    SC3   30   3.371   3.299   0.149
    2TRP     BB   31   3.440   3.665   0.493
    2TRP    SC1   32   3.461   3.944   0.632
    2TRP    SC2   33   3.657   4.022   0.667
    2TRP    SC3   34   3.381   4.216   0.557
    2TRP    SC4   35   3.583   4.311   0.586
    3TYR     BB   36   3.731   3.726   0.367
    3TYR    SC1   37   3.796   3.467   0.249
    3TYR    SC2   38   4.013   3.487   0.146
    3TYR    SC3   39   4.074   3.266   0.225
    1TYR     BB   40   0.944   7.306   0.928
    1TYR    SC1   41   0.742   7.184   1.131
    1TYR    SC2   42   0.890   7.183   1.321
    1TYR    SC3   43   0.707   7.245   1.468
    2TRP     BB   44   1.028   7.541   1.210
    2TRP    SC1   45   1.270   7.643   1.040
    2TRP    SC2   46   1.425   7.747   1.143
    2TRP    SC3   47   1.481   7.510   0.886
    2TRP    SC4   48   1.654   7.609   0.988
    3TYR     BB   49   1.227   7.542   1.463
    3TYR    SC1   50   1.041   7.494   1.682
    3TYR    SC2   51   1.169   7.490   1.886
    3TYR    SC3   52   0.994   7.612   2.002
    1TYR     BB   53   6.902   6.672   7.001
    1TYR    SC1   54   6.669   6.865   7.076
    1TYR    SC2   55   6.539   6.705   7.201
    1TYR    SC3   56   6.478   6.877   7.361
    2TRP     BB   57   6.876   6.563   7.361
    2TRP    SC1   58   7.073   6.329   7.295
    2TRP    SC2   59   7.078   6.164   7.431
    2TRP    SC3   60   7.089   6.133   7.078
    2TRP    SC4   61   7.092   5.950   7.209
    3TYR     BB   62   6.705   6.349   7.530
    3TYR    SC1   63   6.514   6.522   7.665
    3TYR    SC2   64   6.371   6.382   7.800
    3TYR    SC3   65   6.375   6.546   7.979
    1TYR     BB   66   3.144   1.116   4.314
    1TYR    SC1   67   2.927   1.254   4.138
    1TYR    SC2   68   3.032   1.471   4.129
    1TYR    SC3   69   2.963   1.497   3.897
    2TRP     BB   70   3.387   1.291   4.086
    2TRP    SC1   71   3.616   1.204   4.279
    2TRP    SC2   72   3.801   1.310   4.266
    2TRP    SC3   73   3.651   1.210   4.570
    2TRP    SC4   74   3.844   1.324   4.571
    3TYR     BB   75   3.530   1.580   4.073
    3TYR    SC1   76   3.380   1.709   3.859
    3TYR    SC2   77   3.470   1.930   3.830
    3TYR    SC3   78   3.450   1.910   3.589
    1TYR     BB   79   4.006   3.126   2.335
    1TYR    SC1   80   3.953   2.861   2.181
    1TYR    SC2   81   3.808   2.954   2.013
    1TYR    SC3   82   3.905   2.809   1.844
    2TRP     BB   83   4.047   3.274   1.991
    2TRP    SC1   84   4.051   3.557   2.123
    2TRP    SC2   85   4.012   3.725   1.997
    2TRP    SC3   86   3.887   3.690   2.327
    2TRP    SC4   87   3.835   3.870   2.204
    3TYR     BB   88   3.854   3.401   1.766
    3TYR    SC1   89   3.844   3.185   1.571
    3TYR    SC2   90   3.702   3.257   1.390
    3TYR    SC3   91   3.852   3.155   1.228
    1TYR     BB   92   3.653   3.385   4.947
    1TYR    SC1   93   3.943   3.495   4.976
    1TYR    SC2   94   3.885   3.702   5.082
    1TYR    SC3   95   4.081   3.688   5.225
    2TRP     BB   96   3.612   3.509   5.301
    2TRP    SC1   97   3.306   3.453   5.276
    2TRP    SC2   98   3.177   3.549   5.416
    2TRP    SC3   99   3.104   3.511   5.071
    2TRP    SC4  100   2.961   3.618   5.206
    3TYR     BB  101   3.532   3.785   5.446
    3TYR    SC1  102   3.792   3.877   5.542
    3TYR    SC2  103   3.758   4.086   5.655
    3TYR    SC3  104   3.917   4.023   5.827
    1TYR     BB  105   5.405   1.111   4.843
    1TYR    SC1  106   5.693   1.036   4.752
    1TYR    SC2  107   5.703   0.822   4.862
    1TYR    SC3  108   5.825   0.728   4.674
    2TRP     BB  109   5.325   0.753   4.754
    2TRP    SC1  110   5.045   0.792   4.887
    2TRP    SC2  111   4.937   0.616   4.941
    2TRP    SC3  112   4.954   0.909   5.140
    2TRP    SC4  113   4.840   0.729   5.212
    3TYR     BB  114   5.336   0.466   4.900
    3TYR    SC1  115   5.571   0.348   4.775
    3TYR    SC2  116   5.601   0.129   4.871
    3TYR    SC3  117   5.662   0.039   4.653
    1TYR     BB  118   6.382   7.027   5.497
    1TYR    SC1  119   6.168   6.854   5.642
    1TYR    SC2  120   5.985   6.903   5.494
    1TYR    SC3  121   5.905   6.675   5.511
    2TRP     BB  122   6.236   6.876   5.184
    2TRP    SC1  123   6.408   7.078   5.018
    2TRP    SC2  124   6.349   7.113   4.816
    2TRP    SC3  125   6.459   7.366   5.038
    2TRP    SC4  126   6.397   7.418   4.828
    3TYR     BB  127   5.994   6.943   4.982
    3TYR    SC1  128   5.798   6.741   5.059
    3TYR    SC2  129   5.604   6.771   4.920
    3TYR    SC3  130   5.578   6.530   4.899
    1TYR     BB  131   4.156   5.351   2.398
    1TYR    SC1  132   3.951   5.295   2.625
    1TYR    SC2  133   4.000   5.489   2.758
    1TYR    SC3  134   3.765   5.515   2.813
    2TRP     BB  135   4.028   5.705   2.423
    2TRP    SC1  136   4.261   5.792   2.233
    2TRP    SC2  137   4.312   5.999   2.230
    2TRP    SC3  138   4.548   5.735   2.224
    2TRP    SC4  139   4.617   5.949   2.224
    3TYR     BB  140   4.095   5.967   2.598
    3TYR    SC1  141   3.870   5.971   2.783
    3TYR    SC2  142   3.898   6.162   2.927
    3TYR    SC3  143   3.660   6.208   2.917
    1TYR     BB  144   0.467   5.479   6.555
    1TYR    SC1  145   0.231   5.460   6.353
    1TYR    SC2  146   0.317   5.275   6.225
    1TYR    SC3  147   0.094   5.183   6.201
    2TRP     BB  148   0.438   5.103   6.565
    2TRP    SC1  149   0.705   5.097   6.728
    2TRP    SC2  150   0.811   4.912   6.736
    2TRP    SC3  151   0.965   5.229   6.698
    2TRP    SC4  152   1.089   5.041   6.701
    3TYR     BB  153   0.555   4.854   6.397
    3TYR    SC1  154   0.321   4.776   6.242
    3TYR    SC2  155   0.384   4.588   6.106
    3TYR    SC3  156   0.170   4.481   6.147
    1TYR     BB  157   4.464   2.823   5.935
    1TYR    SC1  158   4.746   2.709   5.999
    1TYR    SC2  159   4.733   2.730   6.238
    1TYR    SC3  160   4.852   2.520   6.267
    2TRP     BB  161   4.353   2.606   6.223
    2TRP    SC1  162   4.074   2.745   6.209
    2TRP    SC2  163   3.948   2.730   6.381
    2TRP    SC3  164   3.987   3.025   6.187
    2TRP    SC4  165   3.853   3.024   6.368
    3TYR     BB  166   4.332   2.634   6.544
    3TYR    SC1  167   4.559   2.473   6.630
    3TYR    SC2  168   4.565   2.478   6.871
    3TYR    SC3  169   4.624   2.243   6.878
    1TYR     BB  170  -0.145   0.756   0.153
    1TYR    SC1  171  -0.023   0.888   0.407
    1TYR    SC2  172   0.000   0.686   0.536
    1TYR    SC3  173   0.211   0.765   0.627
    2TRP     BB  174   0.123   0.496   0.206
    2TRP    SC1  175  -0.015   0.323  -0.015
    2TRP    SC2  176   0.033   0.115  -0.021
    2TRP    SC3  177  -0.292   0.246  -0.070
    2TRP    SC4  178  -0.256   0.024  -0.075
    3TYR     BB  179   0.155   0.224   0.375
    3TYR    SC1  180   0.328   0.312   0.593
    3TYR    SC2  181   0.367   0.123   0.736
    3TYR    SC3  182   0.599   0.188   0.764
    1TYR     BB  183   7.164   3.768   2.915
    1TYR    SC1  184   6.957   3.909   3.099
    1TYR    SC2  185   6.843   3.710   3.172
    1TYR    SC3  186   6.818   3.801   3.395
    2TRP     BB  187   7.196   3.524   3.201
    2TRP    SC1  188   7.366   3.341   3.013
    2TRP    SC2  189   7.388   3.136   3.069
    2TRP    SC3  190   7.336   3.248   2.737
    2TRP    SC4  191   7.353   3.028   2.782
    3TYR     BB  192   7.046   3.256   3.298
    3TYR    SC1  193   6.889   3.356   3.522
    3TYR    SC2  194   6.766   3.170   3.613
    3TYR    SC3  195   6.808   3.249   3.839
    1TYR     BB  196   6.005   4.249   4.167
    1TYR    SC1  197   6.144   3.988   4.069
    1TYR    SC2  198   5.946   3.851   4.064
    1TYR    SC3  199   6.025   3.741   3.862
    2TRP     BB  200   5.742   4.160   3.913
    2TRP    SC1  201   5.564   4.387   4.031
    2TRP    SC2  202   5.355   4.381   3.987
    2TRP    SC3  203   5.490   4.468   4.303
    2TRP    SC4  204   5.268   4.461   4.272
    3TYR     BB  205   5.476   3.978   3.904
    3TYR    SC1  206   5.569   3.748   3.752
    3TYR    SC2  207   5.384   3.595   3.732
    3TYR    SC3  208   5.446   3.545   3.502
    1TYR     BB  209   5.522   5.002   8.029
    1TYR    SC1  210   5.416   4.967   7.739
    1TYR    SC2  211   5.631   4.968   7.629
    1TYR    SC3  212   5.556   4.798   7.473
    2TRP     BB  213   5.779   4.746   7.926
    2TRP    SC1  214   5.930   4.804   8.193
    2TRP    SC2  215   6.135   4.744   8.205
    2TRP    SC3  216   6.009   5.049   8.334
    2TRP    SC4  217   6.228   5.000   8.350
    3TYR     BB  218   6.067   4.746   7.783
    3TYR    SC1  219   5.998   4.649   7.517
    3TYR    SC2  220   6.202   4.641   7.388
    3TYR    SC3  221   6.133   4.431   7.287
    1TYR     BB  222   4.095   6.943   4.227
    1TYR    SC1  223   4.202   6.762   3.997
    1TYR    SC2  224   4.119   6.896   3.815
    1TYR    SC3  225   4.320   6.851   3.686
    2TRP     BB  226   4.225   7.226   4.015
    2TRP    SC1  227   4.080   7.424   4.208
    2TRP    SC2  228   4.044   7.622   4.136
    2TRP    SC3  229   3.812   7.435   4.326
    2TRP    SC4  230   3.760   7.641   4.254
    3TYR     BB  231   4.114   7.407   3.772
    3TYR    SC1  232   4.259   7.294   3.546
    3TYR    SC2  233   4.191   7.415   3.349
    3TYR    SC3  234   4.420   7.413   3.266
    1TYR     BB  235   6.093   0.636   7.244
    1TYR    SC1  236   6.121   0.375   7.412
    1TYR    SC2  237   5.942   0.253   7.306
    1TYR    SC3  238   6.071   0.048   7.318
    2TRP     BB  239   6.059   0.399   6.952
    2TRP    SC1  240   5.979   0.644   6.776
    2TRP    SC2  241   5.878   0.603   6.592
    2TRP    SC3  242   5.794   0.869   6.811
    2TRP    SC4  243   5.677   0.835   6.622
    3TYR     BB  244   5.821   0.238   6.808
    3TYR    SC1  245   5.869  -0.033   6.903
    3TYR    SC2  246   5.700  -0.175   6.807
    3TYR    SC3  247   5.864  -0.351   6.770
    1TYR     BB  248   0.996   1.852   4.367
    1TYR    SC1  249   0.745   1.791   4.541
    1TYR    SC2  250   0.852   1.641   4.696
    1TYR    SC3  251   0.721   1.732   4.879
    2TRP     BB  252   1.171   1.882   4.700
    2TRP    SC1  253   1.442   1.894   4.544
    2TRP    SC2  254   1.620   1.853   4.655
    2TRP    SC3  255   1.559   1.738   4.325
    2TRP    SC4  256   1.749   1.684   4.431
    3TYR     BB  257   1.318   1.684   4.907
    3TYR    SC1  258   1.119   1.665   5.118
    3TYR    SC2  259   1.207   1.518   5.288
    3TYR    SC3  260   1.118   1.662   5.463
    1TYR     BB  261   3.149   0.428   5.494
    1TYR    SC1  262   3.058   0.437   5.791
    1TYR    SC2  263   2.909   0.625   5.770
    1TYR    SC3  264   2.752   0.523   5.924
    2TRP     BB  265   2.783   0.479   5.419
    2TRP    SC1  266   2.860   0.523   5.120
    2TRP    SC2  267   2.717   0.622   4.995
    2TRP    SC3  268   3.066   0.681   4.983
    2TRP    SC4  269   2.927   0.795   4.849
    3TYR     BB  270   2.583   0.730   5.388
    3TYR    SC1  271   2.435   0.717   5.638
    3TYR    SC2  272   2.277   0.898   5.638
    3TYR    SC3  273   2.108   0.755   5.739
    1TYR     BB  274   7.583   0.583   2.811
    1TYR    SC1  275   7.813   0.378   2.852
    1TYR    SC2  276   7.684   0.212   2.969
    1TYR    SC3  277   7.802   0.034   2.855
    2TRP     BB  278   7.379   0.279   2.719
    2TRP    SC1  279   7.125   0.461   2.722
    2TRP    SC2  280   6.935   0.363   2.737
    2TRP    SC3  281   7.020   0.662   2.908
    2TRP    SC4  282   6.818   0.568   2.936
    3TYR     BB  283   7.204   0.058   2.874
    3TYR    SC1  284   7.382  -0.172   2.865
    3TYR    SC2  285   7.270  -0.354   2.977
    3TYR    SC3  286   7.351  -0.511   2.810
    1TYR     BB  287   2.809   6.995   2.734
    1TYR    SC1  288   2.776   6.685   2.726
    1TYR    SC2  289   2.690   6.671   2.501
    1TYR    SC3  290   2.816   6.467   2.462
    2TRP     BB  291   2.954   6.950   2.389
    2TRP    SC1  292   2.948   7.261   2.357
    2TRP    SC2  293   2.960   7.339   2.158
    2TRP    SC3  294   2.748   7.468   2.412
    2TRP    SC4  295   2.747   7.558   2.206
    3TYR     BB  296   2.841   6.934   2.087
    3TYR    SC1  297   2.864   6.649   2.033
    3TYR    SC2  298   2.784   6.611   1.809
    3TYR    SC3  299   2.962   6.451   1.769
    1TYR     BB  300   1.772   6.748   6.942
    1TYR    SC1  301   2.059   6.636   6.987
    1TYR    SC2  302   2.016   6.414   6.905
    1TYR    SC3  303   2.236   6.407   6.802
    2TRP     BB  304   1.795   6.569   6.611
    2TRP    SC1  305   1.491   6.628   6.569
    2TRP    SC2  306   1.388   6.510   6.424
    2TRP    SC3  307   1.253   6.602   6.738
    2TRP    SC4  308   1.135   6.474   6.596
    3TYR     BB  309   1.736   6.273   6.499
    3TYR    SC1  310   2.007   6.169   6.470
    3TYR    SC2  311   1.989   5.943   6.386
    3TYR    SC3  312   2.179   5.980   6.240
    1TYR     BB  313   2.126   3.068   1.454
    1TYR    SC1  314   1.873   3.022   1.279
    1TYR    SC2  315   1.756   3.222   1.344
    1TYR    SC3  316   1.673   3.251   1.118
    2TRP     BB  317   2.101   3.423   1.330
    2TRP    SC1  318   2.321   3.501   1.537
    2TRP    SC2  319   2.340   3.708   1.587
    2TRP    SC3  320   2.364   3.442   1.821
    2TRP    SC4  321   2.382   3.656   1.889
    3TYR     BB  322   1.947   3.692   1.418
    3TYR    SC1  323   1.735   3.705   1.218
    3TYR    SC2  324   1.604   3.901   1.264
    3TYR    SC3  325   1.586   3.948   1.026
    1TYR     BB  326   0.884   6.452   8.423
    1TYR    SC1  327   1.153   6.536   8.291
    1TYR    SC2  328   1.093   6.480   8.065
    1TYR    SC3  329   1.212   6.675   7.982
    2TRP     BB  330   0.729   6.631   8.130
    2TRP    SC1  331   0.452   6.514   8.217
    2TRP    SC2  332   0.296   6.513   8.071
    2TRP    SC3  333   0.360   6.248   8.298
    2TRP    SC4  334   0.194   6.232   8.147
    3TYR     BB  335   0.645   6.558   7.827
    3TYR    SC1  336   0.857   6.689   7.676
    3TYR    SC2  337   0.816   6.648   7.443
    3TYR    SC3  338   0.882   6.875   7.388
    1TYR     BB  339   7.838   5.281   4.385
    1TYR    SC1  340   7.806   5.155   4.103
    1TYR    SC2  341   7.720   5.351   3.993
    1TYR    SC3  342   7.847   5.298   3.792
    2TRP     BB  343   7.982   5.574   4.196
    2TRP    SC1  344   7.975   5.737   4.463
    2TRP    SC2  345   7.985   5.950   4.448
    2TRP    SC3  346   7.774   5.776   4.673
    2TRP    SC4  347   7.772   6.001   4.665
    3TYR     BB  348   7.868   5.838   4.051
    3TYR    SC1  349   7.892   5.764   3.770
    3TYR    SC2  350   7.812   5.949   3.639
    3TYR    SC3  351   7.990   5.917   3.478
    1TYR     BB  352   6.012   5.739   6.655
    1TYR    SC1  353   5.840   5.793   6.909
    1TYR    SC2  354   5.706   5.971   6.815
    1TYR    SC3  355   5.510   5.890   6.933
    2TRP     BB  356   5.683   5.766   6.473
    2TRP    SC1  357   5.843   5.764   6.204
    2TRP    SC2  358   5.743   5.836   6.030
    2TRP    SC3  359   6.082   5.904   6.108
    2TRP    SC4  360   5.989   5.990   5.923
    3TYR     BB  361   5.505   6.002   6.345
    3TYR    SC1  362   5.291   6.025   6.542
    3TYR    SC2  363   5.142   6.199   6.467
    3TYR    SC3  364   4.950   6.069   6.538
    1TYR     BB  365   3.416   7.909   6.137
    1TYR    SC1  366   3.385   7.609   6.058
    1TYR    SC2  367   3.614   7.574   5.991
    1TYR    SC3  368   3.611   7.351   6.087
    2TRP     BB  369   3.735   7.794   6.302
    2TRP    SC1  370   3.809   8.094   6.347
    2TRP    SC2  371   4.014   8.139   6.387
    2TRP    SC3  372   3.804   8.333   6.177
    2TRP    SC4  373   4.019   8.390   6.207
    3TYR     BB  374   4.041   7.749   6.214
    3TYR    SC1  375   4.054   7.458   6.197
    3TYR    SC2  376   4.278   7.399   6.131
    3TYR    SC3  377   4.277   7.211   6.285
    1TYR     BB  378   1.825   5.754   1.822
    1TYR    SC1  379   1.592   5.600   1.687
    1TYR    SC2  380   1.533   5.464   1.876
    1TYR    SC3  381   1.297   5.484   1.823
    2TRP     BB  382   1.589   5.780   2.114
    2TRP    SC1  383   1.826   5.891   2.285
    2TRP    SC2  384   1.806   5.884   2.497
    2TRP    SC3  385   2.105   5.810   2.322
    2TRP    SC4  386   2.097   5.794   2.546
    3TYR     BB  387   1.511   5.600   2.370
    3TYR    SC1  388   1.253   5.493   2.289
    3TYR    SC2  389   1.173   5.352   2.467
    3TYR    SC3  390   0.947   5.436   2.437
    1TYR     BB  391   1.642   3.293   4.233
    1TYR    SC1  392   1.914   3.336   4.378
    1TYR    SC2  393   1.824   3.431   4.580
    1TYR    SC3  394   1.989   3.313   4.713
    2TRP     BB  395   1.526   3.164   4.567
    2TRP    SC1  396   1.235   3.162   4.455
    2TRP    SC2  397   1.075   3.157   4.597
    2TRP    SC3  398   1.074   3.354   4.302
    2TRP    SC4  399   0.900   3.361   4.445
    3TYR     BB  400   1.403   3.290   4.837
    3TYR    SC1  401   1.633   3.278   5.016
    3TYR    SC2  402   1.565   3.368   5.228
    3TYR    SC3  403   1.691   3.197   5.345
    1TYR     BB  404   1.763   4.968   3.906
    1TYR    SC1  405   1.594   5.208   4.009
    1TYR    SC2  406   1.477   5.089   4.182
    1TYR    SC3  407   1.490   5.282   4.328
    2TRP     BB  408   1.816   4.898   4.273
    2TRP    SC1  409   1.946   4.625   4.193
    2TRP    SC2  410   1.960   4.475   4.344
    2TRP    SC3  411   1.871   4.411   4.007
    2TRP    SC4  412   1.878   4.243   4.156
    3TYR     BB  413   1.662   4.736   4.506
    3TYR    SC1  414   1.545   4.955   4.659
    3TYR    SC2  415   1.422   4.858   4.842
    3TYR    SC3  416   1.501   5.033   4.991
    1TYR     BB  417   2.297   2.488   7.191
    1TYR    SC1  418   2.192   2.691   6.981
    1TYR    SC2  419   1.957   2.645   7.012
    1TYR    SC3  420   1.904   2.880   6.984
    2TRP     BB  421   2.019   2.624   7.406
    2TRP    SC1  422   2.077   2.394   7.609
    2TRP    SC2  423   1.923   2.347   7.751
    2TRP    SC3  424   2.121   2.105   7.584
    2TRP    SC4  425   1.960   2.041   7.727
    3TYR     BB  426   1.706   2.562   7.451
    3TYR    SC1  427   1.583   2.786   7.311
    3TYR    SC2  428   1.344   2.762   7.331
    3TYR    SC3  429   1.319   3.001   7.365
    1TYR     BB  430   4.761   1.752   5.889
    1TYR    SC1  431   4.542   1.910   6.042
    1TYR    SC2  432   4.531   1.766   6.235
    1TYR    SC3  433   4.501   1.958   6.381
    2TRP     BB  434   4.929   1.733   6.227
    2TRP    SC1  435   5.132   1.530   6.104
    2TRP    SC2  436   5.244   1.408   6.239
    2TRP    SC3  437   5.106   1.292   5.934
    2TRP    SC4  438   5.218   1.152   6.070
    3TYR     BB  439   4.918   1.539   6.484
    3TYR    SC1  440   4.766   1.703   6.672
    3TYR    SC2  441   4.743   1.577   6.876
    3TYR    SC3  442   4.779   1.778   7.007
    1TYR     BB  443   4.890   1.481   2.084
    1TYR    SC1  444   4.762   1.565   1.813
    1TYR    SC2  445   4.968   1.621   1.700
    1TYR    SC3  446   4.883   1.527   1.493
    2TRP     BB  447   5.140   1.301   1.867
    2TRP    SC1  448   5.310   1.249   2.124
    2TRP    SC2  449   5.516   1.198   2.096
    2TRP    SC3  450   5.397   1.416   2.348
    2TRP    SC4  451   5.617   1.374   2.328
    3TYR     BB  452   5.417   1.373   1.718
    3TYR    SC1  453   5.329   1.392   1.441
    3TYR    SC2  454   5.522   1.447   1.308
    3TYR    SC3  455   5.448   1.295   1.133
    1TYR     BB  456   1.466   0.709   3.608
    1TYR    SC1  457   1.451   0.989   3.474
    1TYR    SC2  458   1.552   0.927   3.265
    1TYR    SC3  459   1.400   1.072   3.144
    2TRP     BB  460   1.346   0.584   3.273
    2TRP    SC1  461   1.402   0.294   3.372
    2TRP    SC2  462   1.420   0.141   3.223
    2TRP    SC3  463   1.627   0.165   3.510
    2TRP    SC4  464   1.659   0.001   3.359
    3TYR     BB  465   1.480   0.498   2.993
    3TYR    SC1  466   1.417   0.728   2.826
    3TYR    SC2  467   1.509   0.686   2.608
    3TYR    SC3  468   1.313   0.783   2.503
    1TYR     BB  469   6.652   6.494   0.978
    1TYR    SC1  470   6.856   6.342   1.157
    1TYR    SC2  471   6.725   6.143   1.188
    1TYR    SC3  472   6.924   6.005   1.174
    2TRP     BB  473   6.615   6.162   0.804
    2TRP    SC1  474   6.372   6.282   0.648
    2TRP    SC2  475   6.237   6.144   0.557
    2TRP    SC3  476   6.137   6.438   0.726
    2TRP    SC4  477   5.983   6.300   0.638
    3TYR     BB  478   6.438   5.895   0.842
    3TYR    SC1  479   6.635   5.711   0.952
    3TYR    SC2  480   6.525   5.501   0.989
    3TYR    SC3  481   6.720   5.380   0.910
    1TYR     BB  482   1.098   2.474   1.374
    1TYR    SC1  483   1.338   2.404   1.559
    1TYR    SC2  484   1.318   2.595   1.705
    1TYR    SC3  485   1.377   2.459   1.897
    2TRP     BB  486   0.920   2.554   1.697
    2TRP    SC1  487   0.688   2.675   1.528
    2TRP    SC2  488   0.553   2.808   1.628
    2TRP    SC3  489   0.676   2.859   1.299
    2TRP    SC4  490   0.538   3.009   1.393
    3TYR     BB  491   0.890   2.809   1.891
    3TYR    SC1  492   1.064   2.732   2.113
    3TYR    SC2  493   1.058   2.911   2.274
    3TYR    SC3  494   1.055   2.751   2.456
    1TYR     BB  495   4.579   7.086   2.607
    1TYR    SC1  496   4.362   7.156   2.819
    1TYR    SC2  497   4.268   7.344   2.702
    1TYR    SC3  498   4.044   7.281   2.774
    2TRP     BB  499   4.301   7.142   2.359
    2TRP    SC1  500   4.514   7.125   2.131
    2TRP    SC2  501   4.461   7.206   1.941
    2TRP    SC3  502   4.780   7.244   2.091
    2TRP    SC4  503   4.736   7.338   1.892
    3TYR     BB  504   4.176   7.393   2.200
    3TYR    SC1  505   3.928   7.435   2.347
    3TYR    SC2  506   3.814   7.622   2.245
    3TYR    SC3  507   3.600   7.509   2.271
    1TYR     BB  508   2.953   4.731   1.774
    1TYR    SC1  509   2.994   4.606   1.492
    1TYR    SC2  510   3.117   4.411   1.565
    1TYR    SC3  511   3.004   4.274   1.399
    2TRP     BB  512   2.870   4.377   1.877
    2TRP    SC1  513   2.873   4.473   2.174
    2TRP    SC2  514   2.894   4.323   2.325
    2TRP    SC3  515   3.056   4.638   2.333
    2TRP    SC4  516   3.090   4.488   2.497
    3TYR     BB  517   3.032   4.117   1.976
    3TYR    SC1  518   3.026   3.951   1.737
    3TYR    SC2  519   3.143   3.747   1.787
    3TYR    SC3  520   2.978   3.618   1.664
    1TYR     BB  521   7.387   1.790   0.732
    1TYR    SC1  522   7.525   1.533   0.840
    1TYR    SC2  523   7.339   1.384   0.805
    1TYR    SC3  524   7.490   1.206   0.738
    2TRP     BB  525   7.266   1.564   0.456
    2TRP    SC1  526   7.080   1.796   0.360
    2TRP    SC2  527   6.917   1.745   0.233
    2TRP    SC3  528   6.897   1.980   0.496
    2TRP    SC4  529   6.716   1.933   0.372
    3TYR     BB  530   7.016   1.366   0.407
    3TYR    SC1  531   7.143   1.106   0.439
    3TYR    SC2  532   6.973   0.938   0.407
    3TYR    SC3  533   7.129   0.799   0.284
    1TYR     BB  534   2.481   6.230   0.345
    1TYR    SC1  535   2.559   5.929   0.343
    1TYR    SC2  536   2.502   5.883   0.573
    1TYR    SC3  537   2.416   5.665   0.511
    2TRP     BB  538   2.176   6.112   0.532
    2TRP    SC1  539   2.107   6.411   0.589
    2TRP    SC2  540   1.970   6.451   0.748
    2TRP    SC3  541   2.261   6.642   0.682
    2TRP    SC4  542   2.128   6.694   0.855
    3TYR     BB  543   2.098   6.053   0.839
    3TYR    SC1  544   2.100   5.761   0.844
    3TYR    SC2  545   2.044   5.692   1.067
    3TYR    SC3  546   1.907   5.511   0.980
    1TYR     BB  547   5.249   5.492   3.786
    1TYR    SC1  548   5.466   5.688   3.895
    1TYR    SC2  549   5.398   5.680   4.126
    1TYR    SC3  550   5.630   5.686   4.198
    2TRP     BB  551   5.337   5.286   4.090
    2TRP    SC1  552   5.091   5.104   4.026
    2TRP    SC2  553   5.017   4.981   4.184
    2TRP    SC3  554   4.812   5.157   3.954
    2TRP    SC4  555   4.720   5.034   4.118
    3TYR     BB  556   5.246   5.272   4.399
    3TYR    SC1  557   5.474   5.396   4.531
    3TYR    SC2  558   5.428   5.398   4.768
    3TYR    SC3  559   5.659   5.341   4.816
    1TYR     BB  560   7.124   1.992   3.806
    1TYR    SC1  561   6.869   1.858   3.925
    1TYR    SC2  562   6.981   1.675   4.034
    1TYR    SC3  563   6.828   1.690   4.222
    2TRP     BB  564   7.271   1.927   4.147
    2TRP    SC1  565   7.549   2.010   4.033
    2TRP    SC2  566   7.722   1.950   4.142
    2TRP    SC3  567   7.698   1.944   3.789
    2TRP    SC4  568   7.885   1.874   3.891
    3TYR     BB  569   7.423   1.684   4.295
    3TYR    SC1  570   7.212   1.581   4.468
    3TYR    SC2  571   7.303   1.395   4.590
    3TYR    SC3  572   7.187   1.466   4.791
    1TYR     BB  573   3.233   6.428   6.862
    1TYR    SC1  574   3.179   6.132   6.938
    1TYR    SC2  575   3.284   6.033   6.745
    1TYR    SC3  576   3.372   5.852   6.882
    2TRP     BB  577   3.577   6.303   6.772
    2TRP    SC1  578   3.635   6.582   6.643
    2TRP    SC2  579   3.797   6.594   6.505
    2TRP    SC3  580   3.485   6.757   6.462
    2TRP    SC4  581   3.646   6.776   6.306
    3TYR     BB  582   3.720   6.173   6.514
    3TYR    SC1  583   3.741   5.894   6.595
    3TYR    SC2  584   3.846   5.774   6.415
    3TYR    SC3  585   3.975   5.643   6.574
    1TYR     BB  586   2.862   2.645   3.698
    1TYR    SC1  587   3.048   2.405   3.765
    1TYR    SC2  588   2.884   2.231   3.733
    1TYR    SC3  589   3.051   2.087   3.632
    2TRP     BB  590   2.746   2.428   3.413
    2TRP    SC1  591   2.518   2.634   3.360
    2TRP    SC2  592   2.351   2.568   3.244
    2TRP    SC3  593   2.325   2.773   3.532
    2TRP    SC4  594   2.141   2.708   3.421
    3TYR     BB  595   2.526   2.197   3.367
    3TYR    SC1  596   2.693   1.959   3.360
    3TYR    SC2  597   2.548   1.769   3.326
    3TYR    SC3  598   2.708   1.669   3.175
    1TYR     BB  599   8.314   3.562   2.609
    1TYR    SC1  600   8.059   3.557   2.788
    1TYR    SC2  601   7.922   3.696   2.647
    1TYR    SC3  602   7.727   3.560   2.696
    2TRP     BB  603   8.071   3.510   2.326
    2TRP    SC1  604   8.305   3.563   2.127
    2TRP    SC2  605   8.254   3.614   1.926
    2TRP    SC3  606   8.516   3.766   2.110
    2TRP    SC4  607   8.470   3.833   1.900
    3TYR     BB  608   7.889   3.695   2.135
    3TYR    SC1  609   7.624   3.651   2.249
    3TYR    SC2  610   7.467   3.782   2.120
    3TYR    SC3  611   7.305   3.602   2.129
    1TYR     BB  612   5.316   5.137   2.641
    1TYR    SC1  613   5.489   5.120   2.899
    1TYR    SC2  614   5.685   5.026   2.796
    1TYR    SC3  615   5.828   5.161   2.939
    2TRP     BB  616   5.632   5.270   2.484
    2TRP    SC1  617   5.492   5.246   2.206
    2TRP    SC2  618   5.617   5.246   2.033
    2TRP    SC3  619   5.334   5.037   2.074
    2TRP    SC4  620   5.459   5.024   1.888
    3TYR     BB  621   5.894   5.146   2.344
    3TYR    SC1  622   6.093   5.182   2.553
    3TYR    SC2  623   6.302   5.096   2.471
    3TYR    SC3  624   6.423   5.280   2.573
    1TYR     BB  625   3.689   0.446   7.888
    1TYR    SC1  626   3.915   0.333   7.705
    1TYR    SC2  627   3.775   0.285   7.514
    1TYR    SC3  628   3.952   0.356   7.363
    2TRP     BB  629   3.580   0.628   7.576
    2TRP    SC1  630   3.320   0.711   7.728
    2TRP    SC2  631   3.154   0.775   7.609
    2TRP    SC3  632   3.126   0.567   7.895
    2TRP    SC4  633   2.943   0.624   7.777
    3TYR     BB  634   3.392   0.566   7.322
    3TYR    SC1  635   3.591   0.520   7.114
    3TYR    SC2  636   3.473   0.470   6.910
    3TYR    SC3  637   3.631   0.603   6.782
    1TYR     BB  638   2.584   8.147   3.298
    1TYR    SC1  639   2.580   8.411   3.134
    1TYR    SC2  640   2.685   8.323   2.936
    1TYR    SC3  641   2.539   8.458   2.795
    2TRP     BB  642   2.469   7.989   2.976
    2TRP    SC1  643   2.514   7.709   3.108
    2TRP    SC2  644   2.532   7.541   2.977
    2TRP    SC3  645   2.732   7.591   3.265
    2TRP    SC4  646   2.763   7.411   3.134
    3TYR     BB  647   2.607   7.868   2.711
    3TYR    SC1  648   2.555   8.080   2.518
    3TYR    SC2  649   2.652   8.012   2.308
    3TYR    SC3  650   2.460   8.101   2.188
    1TYR     BB  651   7.958   3.258   7.527
    1TYR    SC1  652   7.653   3.281   7.470
    1TYR    SC2  653   7.670   3.436   7.286
    1TYR    SC3  654   7.488   3.323   7.171
    2TRP     BB  655   7.987   3.234   7.152
    2TRP    SC1  656   8.297   3.260   7.184
    2TRP    SC2  657   8.409   3.317   7.011
    2TRP    SC3  658   8.472   3.438   7.339
    2TRP    SC4  659   8.595   3.509   7.165
    3TYR     BB  660   8.012   3.439   6.905
    3TYR    SC1  661   7.744   3.426   6.792
    3TYR    SC2  662   7.738   3.574   6.602
    3TYR    SC3  663   7.604   3.414   6.478
    1TYR     BB  664   5.190   0.611   1.173
    1TYR    SC1  665   5.343   0.404   0.999
    1TYR    SC2  666   5.484   0.317   1.174
    1TYR    SC3  667   5.464   0.093   1.083
    2TRP     BB  668   5.172   0.330   1.424
    2TRP    SC1  669   5.062   0.535   1.632
    2TRP    SC2  670   5.074   0.481   1.839
    2TRP    SC3  671   5.142   0.805   1.714
    2TRP    SC4  672   5.162   0.761   1.933
    3TYR     BB  673   5.357   0.214   1.660
    3TYR    SC1  674   5.464  -0.027   1.536
    3TYR    SC2  675   5.609  -0.133   1.696
    3TYR    SC3  676   5.526  -0.352   1.630
    1TYR     BB  677   0.176   5.724   1.657
    1TYR    SC1  678  -0.107   5.813   1.750
    1TYR    SC2  679  -0.040   6.018   1.856
    1TYR    SC3  680  -0.241   6.129   1.776
    2TRP     BB  681   0.213   6.085   1.554
    2TRP    SC1  682   0.516   6.029   1.502
    2TRP    SC2  683   0.647   6.198   1.492
    2TRP    SC3  684   0.727   5.892   1.652
    2TRP    SC4  685   0.873   6.063   1.653
    3TYR     BB  686   0.306   6.361   1.693
    3TYR    SC1  687   0.050   6.494   1.731
    3TYR    SC2  688   0.093   6.706   1.836
    3TYR    SC3  689  -0.075   6.813   1.697
    1TYR     BB  690   3.050   7.716   4.683
    1TYR    SC1  691   3.341   7.629   4.751
    1TYR    SC2  692   3.343   7.429   4.617
    1TYR    SC3  693   3.574   7.471   4.554
    2TRP     BB  694   3.145   7.625   4.330
    2TRP    SC1  695   2.845   7.658   4.251
    2TRP    SC2  696   2.781   7.567   4.068
    2TRP    SC3  697   2.592   7.566   4.367
    2TRP    SC4  698   2.514   7.463   4.183
    3TYR     BB  699   3.147   7.359   4.149
    3TYR    SC1  700   3.431   7.295   4.144
    3TYR    SC2  701   3.458   7.095   4.012
    3TYR    SC3  702   3.660   7.186   3.911
    1TYR     BB  703   1.959   7.905   0.039
    1TYR    SC1  704   1.812   8.136   0.188
    1TYR    SC2  705   1.761   8.013   0.388
    1TYR    SC3  706   1.804   8.209   0.524
    2TRP     BB  707   2.123   7.845   0.373
    2TRP    SC1  708   2.240   7.579   0.257
    2TRP    SC2  709   2.308   7.433   0.397
    2TRP    SC3  710   2.127   7.358   0.102
    2TRP    SC4  711   2.190   7.194   0.242
    3TYR     BB  712   2.056   7.678   0.641
    3TYR    SC1  713   1.977   7.892   0.823
    3TYR    SC2  714   1.921   7.791   1.034
    3TYR    SC3  715   2.029   7.973   1.153
    1TYR     BB  716   4.958   6.895   7.279
    1TYR    SC1  717   5.037   7.189   7.343
    1TYR    SC2  718   4.869   7.294   7.207
    1TYR    SC3  719   4.837   7.468   7.374
    2TRP     BB  720   4.605   7.019   7.328
    2TRP    SC1  721   4.504   6.745   7.217
    2TRP    SC2  722   4.302   6.736   7.147
    2TRP    SC3  723   4.576   6.579   6.986
    2TRP    SC4  724   4.369   6.565   6.899
    3TYR     BB  725   4.378   7.157   7.146
    3TYR    SC1  726   4.389   7.433   7.240
    3TYR    SC2  727   4.226   7.559   7.117
    3TYR    SC3  728   4.164   7.681   7.317
    1TYR     BB  729   6.189   6.832   2.955
    1TYR    SC1  730   5.897   6.900   2.873
    1TYR    SC2  731   5.951   7.023   2.673
    1TYR    SC3  732   5.759   6.929   2.559
    2TRP     BB  733   6.233   6.752   2.589
    2TRP    SC1  734   6.540   6.728   2.642
    2TRP    SC2  735   6.670   6.741   2.472
    2TRP    SC3  736   6.736   6.892   2.786
    2TRP    SC4  737   6.880   6.917   2.615
    3TYR     BB  738   6.309   6.915   2.321
    3TYR    SC1  739   6.049   6.934   2.191
    3TYR    SC2  740   6.080   7.054   1.985
    3TYR    SC3  741   5.926   6.904   1.871
    1TYR     BB  742   4.187   1.866   0.653
    1TYR    SC1  743   4.204   1.858   0.963
    1TYR    SC2  744   4.422   1.758   0.978
    1TYR    SC3  745   4.477   1.897   1.169
    2TRP     BB  746   4.543   1.988   0.674
    2TRP    SC1  747   4.563   1.954   0.364
    2TRP    SC2  748   4.759   1.944   0.279
    2TRP    SC3  749   4.486   1.741   0.177
    2TRP    SC4  750   4.688   1.718   0.081
    3TYR     BB  751   4.836   1.854   0.691
    3TYR    SC1  752   4.902   1.897   0.972
    3TYR    SC2  753   5.121   1.803   1.009
    3TYR    SC3  754   5.179   1.991   1.153
    1TYR     BB  755   5.169   1.956   7.789
    1TYR    SC1  756   5.002   1.706   7.872
    1TYR    SC2  757   5.030   1.584   7.667
    1TYR    SC3  758   5.048   1.375   7.791
    2TRP     BB  759   5.412   1.702   7.654
    2TRP    SC1  760   5.567   1.936   7.519
    2TRP    SC2  761   5.701   1.886   7.359
    2TRP    SC3  762   5.487   2.169   7.359
    2TRP    SC4  763   5.620   2.126   7.183
    3TYR     BB  764   5.452   1.538   7.379
    3TYR    SC1  765   5.360   1.273   7.456
    3TYR    SC2  766   5.381   1.130   7.264
    3TYR    SC3  767   5.459   0.948   7.403
    1TYR     BB  768   4.681   1.316   3.587
    1TYR    SC1  769   4.923   1.451   3.446
    1TYR    SC2  770   4.941   1.639   3.595
    1TYR    SC3  771   5.184   1.630   3.582
    2TRP     BB  772   4.869   1.397   3.904
    2TRP    SC1  773   4.615   1.312   4.065
    2TRP    SC2  774   4.600   1.379   4.267
    2TRP    SC3  775   4.329   1.370   4.039
    2TRP    SC4  776   4.299   1.447   4.248
    3TYR     BB  777   4.892   1.647   4.105
    3TYR    SC1  778   5.153   1.754   4.033
    3TYR    SC2  779   5.194   1.947   4.172
    3TYR    SC3  780   5.427   1.882   4.198
    1TYR     BB  781   7.310   7.835   1.413
    1TYR    SC1  782   7.414   8.123   1.465
    1TYR    SC2  783   7.512   8.080   1.681
    1TYR    SC3  784   7.698   8.228   1.630
    2TRP     BB  785   7.648   7.730   1.545
    2TRP    SC1  786   7.545   7.435   1.548
    2TRP    SC2  787   7.652   7.295   1.669
    2TRP    SC3  788   7.299   7.306   1.643
    2TRP    SC4  789   7.399   7.156   1.777
    3TYR     BB  790   7.779   7.670   1.833
    3TYR    SC1  791   7.941   7.909   1.873
    3TYR    SC2  792   8.051   7.887   2.086
    3TYR    SC3  793   8.254   7.983   1.994
    1TYR     BB  794   5.928   2.708   3.206
    1TYR    SC1  795   5.660   2.632   3.344
    1TYR    SC2  796   5.755   2.499   3.520
    1TYR    SC3  797   5.591   2.585   3.678
    2TRP     BB  798   6.049   2.768   3.558
    2TRP    SC1  799   6.338   2.798   3.443
    2TRP    SC2  800   6.500   2.777   3.581
    2TRP    SC3  801   6.499   2.644   3.252
    2TRP    SC4  802   6.675   2.611   3.387
    3TYR     BB  803   6.179   2.591   3.794
    3TYR    SC1  804   5.952   2.563   3.975
    3TYR    SC2  805   6.026   2.432   4.164
    3TYR    SC3  806   5.900   2.574   4.315
    1TYR     BB  807   6.556   4.447   1.534
    1TYR    SC1  808   6.459   4.194   1.687
    1TYR    SC2  809   6.591   4.228   1.885
    1TYR    SC3  810   6.409   4.146   2.024
    2TRP     BB  811   6.509   4.618   1.867
    2TRP    SC1  812   6.651   4.869   1.747
    2TRP    SC2  813   6.729   5.013   1.884
    2TRP    SC3  814   6.894   4.910   1.588
    2TRP    SC4  815   6.990   5.060   1.726
    3TYR     BB  816   6.685   4.667   2.133
    3TYR    SC1  817   6.563   4.477   2.317
    3TYR    SC2  818   6.680   4.495   2.527
    3TYR    SC3  819   6.471   4.474   2.649
    1TYR     BB  820   1.605   1.750   0.709
    1TYR    SC1  821   1.361   1.942   0.687
    1TYR    SC2  822   1.322   1.911   0.451
    1TYR    SC3  823   1.081   1.919   0.487
    2TRP     BB  824   1.395   1.521   0.495
    2TRP    SC1  825   1.646   1.337   0.463
    2TRP    SC2  826   1.646   1.198   0.301
    2TRP    SC3  827   1.928   1.387   0.401
    2TRP    SC4  828   1.941   1.246   0.226
    3TYR     BB  829   1.343   1.476   0.180
    3TYR    SC1  830   1.079   1.595   0.149
    3TYR    SC2  831   1.017   1.574  -0.083
    3TYR    SC3  832   0.789   1.521  -0.020
    1TYR     BB  833   6.941   1.440   6.344
    1TYR    SC1  834   6.920   1.314   6.628
    1TYR    SC2  835   7.156   1.288   6.666
    1TYR    SC3  836   7.128   1.348   6.900
    2TRP     BB  837   7.217   1.646   6.498
    2TRP    SC1  838   7.288   1.747   6.212
    2TRP    SC2  839   7.482   1.833   6.183
    2TRP    SC3  840   7.324   1.616   5.952
    2TRP    SC4  841   7.530   1.696   5.911
    3TYR     BB  842   7.534   1.614   6.548
    3TYR    SC1  843   7.542   1.558   6.834
    3TYR    SC2  844   7.773   1.530   6.896
    3TYR    SC3  845   7.735   1.652   7.103
    1TYR     BB  846   5.528   4.552   5.653
    1TYR    SC1  847   5.298   4.726   5.537
    1TYR    SC2  848   5.404   4.778   5.327
    1TYR    SC3  849   5.191   4.759   5.212
    2TRP     BB  850   5.537   4.402   5.308
    2TRP    SC1  851   5.801   4.255   5.389
    2TRP    SC2  852   5.925   4.182   5.231
    2TRP    SC3  853   6.048   4.339   5.524
    2TRP    SC4  854   6.189   4.270   5.364
    3TYR     BB  855   5.680   4.468   5.026
    3TYR    SC1  856   5.457   4.575   4.873
    3TYR    SC2  857   5.540   4.633   4.655
    3TYR    SC3  858   5.337   4.549   4.551
    1TYR     BB  859   0.527   1.576   2.559
    1TYR    SC1  860   0.225   1.603   2.486
    1TYR    SC2  861   0.139   1.490   2.681
    1TYR    SC3  862  -0.047   1.646   2.693
    2TRP     BB  863   0.413   1.676   2.904
    2TRP    SC1  864   0.700   1.606   3.008
    2TRP    SC2  865   0.723   1.574   3.218
    2TRP    SC3  866   0.881   1.380   2.968
    2TRP    SC4  867   0.912   1.332   3.185
    3TYR     BB  868   0.300   1.527   3.166
    3TYR    SC1  869   0.018   1.597   3.154
    3TYR    SC2  870  -0.091   1.494   3.343
    3TYR    SC3  871  -0.227   1.692   3.376
    1TYR     BB  872   2.594   1.303   1.674
    1TYR    SC1  873   2.629   1.077   1.885
    1TYR    SC2  874   2.407   1.089   1.978
    1TYR    SC3  875   2.399   0.848   2.001
    2TRP     BB  876   2.261   1.139   1.609
    2TRP    SC1  877   2.185   1.385   1.432
    2TRP    SC2  878   1.978   1.416   1.390
    2TRP    SC3  879   2.207   1.676   1.466
    2TRP    SC4  880   1.991   1.722   1.428
    3TYR     BB  881   1.963   1.157   1.731
    3TYR    SC1  882   1.950   0.910   1.886
    3TYR    SC2  883   1.732   0.901   1.988
    3TYR    SC3  884   1.718   0.662   1.944
    1TYR     BB  885   6.640   5.413   4.155
    1TYR    SC1  886   6.838   5.576   3.979
    1TYR    SC2  887   6.914   5.392   3.844
    1TYR    SC3  888   6.921   5.535   3.647
    2TRP     BB  889   6.540   5.254   3.828
    2TRP    SC1  890   6.373   5.046   3.992
    2TRP    SC2  891   6.317   4.865   3.893
    2TRP    SC3  892   6.426   4.883   4.229
    2TRP    SC4  893   6.375   4.685   4.137
    3TYR     BB  894   6.639   5.006   3.647
    3TYR    SC1  895   6.776   5.145   3.431
    3TYR    SC2  896   6.861   4.978   3.280
    3TYR    SC3  897   6.800   5.115   3.089
    1TYR     BB  898   7.216   6.561   4.759
    1TYR    SC1  899   7.294   6.840   4.646
    1TYR    SC2  900   7.216   6.803   4.421
    1TYR    SC3  901   7.137   7.032   4.407
    2TRP     BB  902   6.895   6.617   4.568
    2TRP    SC1  903   6.819   6.320   4.629
    2TRP    SC2  904   6.668   6.230   4.507
    2TRP    SC3  905   6.963   6.065   4.612
    2TRP    SC4  906   6.814   5.960   4.481
    3TYR     BB  907   6.788   6.565   4.269
    3TYR    SC1  908   6.791   6.836   4.160
    3TYR    SC2  909   6.714   6.823   3.932
    3TYR    SC3  910   6.587   7.028   3.961
    1TYR     BB  911   3.778   0.311   1.120
    1TYR    SC1  912   3.739   0.617   1.074
    1TYR    SC2  913   3.499   0.617   1.080
    1TYR    SC3  914   3.498   0.829   1.199
    2TRP     BB  915   3.511   0.356   1.383
    2TRP    SC1  916   3.498   0.045   1.408
    2TRP    SC2  917   3.324  -0.039   1.499
    2TRP    SC3  918   3.485  -0.175   1.215
    2TRP    SC4  919   3.300  -0.272   1.298
    3TYR     BB  920   3.189   0.353   1.393
    3TYR    SC1  921   3.131   0.638   1.418
    3TYR    SC2  922   2.891   0.662   1.427
    3TYR    SC3  923   2.912   0.834   1.597
    1TYR     BB  924   7.151   4.792   8.127
    1TYR    SC1  925   6.899   4.624   8.056
    1TYR    SC2  926   6.981   4.537   7.847
    1TYR    SC3  927   6.877   4.322   7.892
    2TRP     BB  928   7.341   4.486   8.014
    2TRP    SC1  929   7.603   4.655   8.031
    2TRP    SC2  930   7.774   4.581   7.925
    2TRP    SC3  931   7.680   4.923   7.939
    2TRP    SC4  932   7.860   4.859   7.821
    3TYR     BB  933   7.453   4.369   7.736
    3TYR    SC1  934   7.261   4.157   7.682
    3TYR    SC2  935   7.325   4.052   7.474
    3TYR    SC3  936   7.272   3.833   7.564
    1TYR     BB  937   0.715   2.794   3.803
    1TYR    SC1  938   0.410   2.784   3.745
    1TYR    SC2  939   0.411   2.939   3.560
    1TYR    SC3  940   0.243   2.807   3.445
    2TRP     BB  941   0.749   2.772   3.428
    2TRP    SC1  942   1.054   2.832   3.461
    2TRP    SC2  943   1.160   2.900   3.289
    2TRP    SC3  944   1.208   3.028   3.616
    2TRP    SC4  945   1.323   3.112   3.442
    3TYR     BB  946   0.753   2.979   3.180
    3TYR    SC1  947   0.488   2.936   3.066
    3TYR    SC2  948   0.466   3.082   2.876
    3TYR    SC3  949   0.351   2.908   2.752
    1TYR     BB  950   5.770   6.063   3.128
    1TYR    SC1  951   5.616   5.795   3.164
    1TYR    SC2  952   5.431   5.884   3.289
    1TYR    SC3  953   5.277   5.736   3.173
    2TRP     BB  954   5.429   6.204   3.050
    2TRP    SC1  955   5.555   6.489   3.060
    2TRP    SC2  956   5.422   6.655   3.084
    2TRP    SC3  957   5.736   6.626   3.246
    2TRP    SC4  958   5.605   6.804   3.284
    3TYR     BB  959   5.181   6.326   3.216
    3TYR    SC1  960   4.991   6.106   3.204
    3TYR    SC2  961   4.794   6.174   3.324
    3TYR    SC3  962   4.652   6.069   3.157
    1TYR     BB  963   5.271   4.161   0.239
    1TYR    SC1  964   5.040   4.076   0.429
    1TYR    SC2  965   5.173   3.940   0.577
    1TYR    SC3  966   5.046   4.017   0.768
    2TRP     BB  967   5.464   4.213   0.559
    2TRP    SC1  968   5.721   4.252   0.385
    2TRP    SC2  969   5.910   4.230   0.484
    2TRP    SC3  970   5.839   4.107   0.159
    2TRP    SC4  971   6.041   4.074   0.252
    3TYR     BB  972   5.645   4.033   0.756
    3TYR    SC1  973   5.463   3.995   0.980
    3TYR    SC2  974   5.577   3.860   1.144
    3TYR    SC3  975   5.485   3.995   1.324
    1TYR     BB  976   5.110   3.567   6.573
    1TYR    SC1  977   4.869   3.427   6.712
    1TYR    SC2  978   4.914   3.507   6.935
    1TYR    SC3  979   4.676   3.533   6.976
    2TRP     BB  980   5.009   3.864   6.782
    2TRP    SC1  981   5.273   4.004   6.694
    2TRP    SC2  982   5.341   4.169   6.812
    2TRP    SC3  983   5.553   3.919   6.677
    2TRP    SC4  984   5.638   4.085   6.803
    3TYR     BB  985   5.070   3.973   7.079
    3TYR    SC1  986   4.820   3.909   7.216
    3TYR    SC2  987   4.842   3.983   7.444
    3TYR    SC3  988   4.612   4.062   7.444
    1TYR     BB  989   7.746   6.751   4.179
    1TYR    SC1  990   7.846   6.457   4.162
    1TYR    SC2  991   7.840   6.438   3.923
    1TYR    SC3  992   8.044   6.306   3.925
    2TRP     BB  993   7.987   6.809   3.894
    2TRP    SC1  994   7.864   7.094   3.861
    2TRP    SC2  995   7.897   7.194   3.675
    2TRP    SC3  996   7.590   7.198   3.851
    2TRP    SC4  997   7.610   7.305   3.654
    3TYR     BB  998   7.980   6.786   3.573
    3TYR    SC1  999   8.132   6.541   3.530
    3TYR    SC2 1000   8.140   6.503   3.292
    3TYR    SC3 1001   8.372   6.431   3.309
    1TYR     BB 1002   6.425   3.674   6.400
    1TYR    SC1 1003   6.728   3.661   6.473
    1TYR    SC2 1004   6.700   3.585   6.699
    1TYR    SC3 1005   6.894   3.441   6.679
    2TRP     BB 1006   6.408   3.341   6.576
    2TRP    SC1 1007   6.096   3.359   6.558
    2TRP    SC2 1008   5.983   3.234   6.690
    2TRP    SC3 1009   5.901   3.570   6.614
    2TRP    SC4 1010   5.775   3.452   6.757
    3TYR     BB 1011   6.368   3.237   6.879
    3TYR    SC1 1012   6.638   3.154   6.947
    3TYR    SC2 1013   6.634   3.072   7.173
    3TYR    SC3 1014   6.786   2.892   7.113
    1TYR     BB 1015   6.197   0.669   5.788
    1TYR    SC1 1016   5.940   0.724   5.954
    1TYR    SC2 1017   5.807   0.545   5.861
    1TYR    SC3 1018   5.708   0.502   6.079
    2TRP     BB 1019   6.129   0.308   5.872
    2TRP    SC1 1020   6.353   0.228   5.669
    2TRP    SC2 1021   6.353   0.027   5.598
    2TRP    SC3 1022   6.418   0.310   5.395
    2TRP    SC4 1023   6.418   0.104   5.306
    3TYR     BB 1024   5.954   0.067   5.748
    3TYR    SC1 1025   5.731   0.057   5.935
    3TYR    SC2 1026   5.583  -0.119   5.862
    3TYR    SC3 1027   5.546  -0.188   6.092
    1TYR     BB 1028   6.130   1.227   2.887
    1TYR    SC1 1029   5.935   1.389   3.068
    1TYR    SC2 1030   6.012   1.302   3.279
    1TYR    SC3 1031   5.985   1.520   3.382
    2TRP     BB 1032   6.388   1.323   3.145
    2TRP    SC1 1033   6.586   1.125   3.007
    2TRP    SC2 1034   6.755   1.060   3.121
    2TRP    SC3 1035   6.564   0.848   2.911
    2TRP    SC4 1036   6.738   0.767   3.028
    3TYR     BB 1037   6.494   1.207   3.426
    3TYR    SC1 1038   6.371   1.392   3.615
    3TYR    SC2 1039   6.436   1.325   3.836
    3TYR    SC3 1040   6.465   1.557   3.902
    1TYR     BB 1041   2.941   7.771   6.842
    1TYR    SC1 1042   3.094   8.037   6.790
    1TYR    SC2 1043   2.978   8.099   6.589
    1TYR    SC3 1044   2.982   8.332   6.655
    2TRP     BB 1045   2.636   7.975   6.755
    2TRP    SC1 1046   2.471   7.710   6.752
    2TRP    SC2 1047   2.283   7.712   6.650
    2TRP    SC3 1048   2.514   7.444   6.635
    2TRP    SC4 1049   2.321   7.435   6.520
    3TYR     BB 1050   2.477   8.057   6.487
    3TYR    SC1 1051   2.558   8.335   6.455
    3TYR    SC2 1052   2.451   8.420   6.257
    3TYR    SC3 1053   2.408   8.632   6.368
    1TYR     BB 1054   4.792   6.605   0.446
    1TYR    SC1 1055   5.050   6.744   0.552
    1TYR    SC2 1056   4.940   6.930   0.659
    1TYR    SC3 1057   5.099   6.922   0.842
    2TRP     BB 1058   4.656   6.680   0.790
    2TRP    SC1 1059   4.375   6.591   0.688
    2TRP    SC2 1060   4.205   6.654   0.801
    2TRP    SC3 1061   4.218   6.648   0.447
    2TRP    SC4 1062   4.033   6.721   0.553
    3TYR     BB 1063   4.507   6.927   0.934
    3TYR    SC1 1064   4.723   7.037   1.097
    3TYR    SC2 1065   4.634   7.226   1.216
    3TYR    SC3 1066   4.758   7.162   1.415
    1TYR     BB 1067   0.516   3.219   5.000
    1TYR    SC1 1068   0.551   3.058   5.263
    1TYR    SC2 1069   0.359   3.148   5.378
    1TYR    SC3 1070   0.311   2.930   5.476
    2TRP     BB 1071   0.152   3.127   5.036
    2TRP    SC1 1072   0.089   3.325   4.803
    2TRP    SC2 1073  -0.114   3.391   4.783
    2TRP    SC3 1074   0.170   3.600   4.741
    2TRP    SC4 1075  -0.038   3.684   4.720
    3TYR     BB 1076  -0.107   3.247   5.186
    3TYR    SC1 1077  -0.133   3.063   5.410
    3TYR    SC2 1078  -0.323   3.134   5.540
    3TYR    SC3 1079  -0.390   2.902   5.574
    1TYR     BB 1080   3.822   2.306   4.792
    1TYR    SC1 1081   3.938   2.551   4.944
    1TYR    SC2 1082   3.802   2.529   5.142
    1TYR    SC3 1083   3.989   2.596   5.282
    2TRP     BB 1084   3.850   2.133   5.126
    2TRP    SC1 1085   3.689   1.894   5.006
    2TRP    SC2 1086   3.598   1.758   5.143
    2TRP    SC3 1087   3.445   1.873   4.845
    2TRP    SC4 1088   3.335   1.733   4.983
    3TYR     BB 1089   3.669   2.101   5.390
    3TYR    SC1 1090   3.805   2.280   5.575
    3TYR    SC2 1091   3.685   2.274   5.784
    3TYR    SC3 1092   3.894   2.278   5.908
    1TYR     BB 1093   1.413   7.542   3.968
    1TYR    SC1 1094   1.130   7.567   4.095
    1TYR    SC2 1095   1.164   7.410   4.273
    1TYR    SC3 1096   1.036   7.549   4.425
    2TRP     BB 1097   1.533   7.556   4.325
    2TRP    SC1 1098   1.818   7.480   4.222
    2TRP    SC2 1099   1.957   7.404   4.365
    2TRP    SC3 1100   1.921   7.279   4.035
    2TRP    SC4 1101   2.068   7.186   4.177
    3TYR     BB 1102   1.582   7.346   4.564
    3TYR    SC1 1103   1.353   7.402   4.736
    3TYR    SC2 1104   1.368   7.254   4.926
    3TYR    SC3 1105   1.295   7.432   5.074
    1TYR     BB 1106   0.395   3.888   5.447
    1TYR    SC1 1107   0.663   3.733   5.421
    1TYR    SC2 1108   0.745   3.779   5.643
    1TYR    SC3 1109   0.838   3.556   5.658
    2TRP     BB 1110   0.376   3.722   5.785
    2TRP    SC1 1111   0.132   3.906   5.852
    2TRP    SC2 1112   0.080   3.929   6.058
    2TRP    SC3 1113   0.079   4.193   5.821
    2TRP    SC4 1114   0.026   4.232   6.036
    3TYR     BB 1115   0.482   3.783   6.083
    3TYR    SC1 1116   0.703   3.594   6.105
    3TYR    SC2 1117   0.800   3.621   6.324
    3TYR    SC3 1118   0.828   3.381   6.345
    1TYR     BB 1119   1.308   8.261   6.331
    1TYR    SC1 1120   1.381   8.032   6.530
    1TYR    SC2 1121   1.164   7.928   6.534
    1TYR    SC3 1122   1.266   7.708   6.542
    2TRP     BB 1123   1.132   7.987   6.140
    2TRP    SC1 1124   1.007   8.208   5.958
    2TRP    SC2 1125   0.834   8.155   5.844
    2TRP    SC3 1126   0.875   8.465   6.010
    2TRP    SC4 1127   0.687   8.421   5.897
    3TYR     BB 1128   0.841   7.849   6.143
    3TYR    SC1 1129   0.901   7.594   6.271
    3TYR    SC2 1130   0.695   7.470   6.286
    3TYR    SC3 1131   0.811   7.264   6.229
    1TYR     BB 1132   2.656   4.537   4.569
    1TYR    SC1 1133   2.368   4.557   4.455
    1TYR    SC2 1134   2.427   4.533   4.223
    1TYR    SC3 1135   2.228   4.400   4.182
    2TRP     BB 1136   2.693   4.253   4.324
    2TRP    SC1 1137   2.999   4.249   4.388
    2TRP    SC2 1138   3.127   4.152   4.248
    2TRP    SC3 1139   3.204   4.457   4.411
    2TRP    SC4 1140   3.348   4.367   4.263
    3TYR     BB 1141   2.775   4.219   4.014
    3TYR    SC1 1142   2.515   4.169   3.892
    3TYR    SC2 1143   2.551   4.140   3.656
    3TYR    SC3 1144   2.388   3.960   3.650
    1TYR     BB 1145   6.720   2.787   1.114
    1TYR    SC1 1146   6.826   2.787   0.822
    1TYR    SC2 1147   6.802   2.551   0.782
    1TYR    SC3 1148   6.731   2.593   0.554
    2TRP     BB 1149   6.453   2.559   0.977
    2TRP    SC1 1150   6.361   2.505   1.270
    2TRP    SC2 1151   6.241   2.332   1.305
    2TRP    SC3 1152   6.502   2.440   1.519
    2TRP    SC4 1153   6.386   2.254   1.566
    3TYR     BB 1154   6.418   2.243   0.925
    3TYR    SC1 1155   6.449   2.228   0.636
    3TYR    SC2 1156   6.427   1.997   0.572
    3TYR    SC3 1157   6.300   2.061   0.375
    1TYR     BB 1158   1.800   5.263   5.409
    1TYR    SC1 1159   1.977   5.069   5.243
    1TYR    SC2 1160   1.862   5.096   5.033
    1TYR    SC3 1161   2.073   5.086   4.912
    2TRP     BB 1162   1.831   5.488   5.107
    2TRP    SC1 1163   1.614   5.673   5.235
    2TRP    SC2 1164   1.514   5.810   5.106
    2TRP    SC3 1165   1.354   5.625   5.362
    2TRP    SC4 1166   1.236   5.763   5.231
    3TYR     BB 1167   1.676   5.528   4.828
    3TYR    SC1 1168   1.864   5.406   4.641
    3TYR    SC2 1169   1.768   5.423   4.420
    3TYR    SC3 1170   1.986   5.476   4.327
    1TYR     BB 1171   3.097   4.873   5.801
    1TYR    SC1 1172   2.968   4.617   5.681
    1TYR    SC2 1173   3.118   4.459   5.784
    1TYR    SC3 1174   2.934   4.303   5.819
    2TRP     BB 1175   3.105   4.674   6.121
    2TRP    SC1 1176   3.279   4.901   6.246
    2TRP    SC2 1177   3.391   4.852   6.422
    2TRP    SC3 1178   3.514   5.051   6.155
    2TRP    SC4 1179   3.644   5.005   6.332
    3TYR     BB 1180   3.305   4.465   6.262
    3TYR    SC1 1181   3.165   4.213   6.217
    3TYR    SC2 1182   3.298   4.038   6.315
    3TYR    SC3 1183   3.097   3.928   6.398
    1TYR     BB 1184   4.130   0.361   2.369
    1TYR    SC1 1185   4.074   0.542   2.123
    1TYR    SC2 1186   4.011   0.739   2.246
    1TYR    SC3 1187   4.124   0.880   2.083
    2TRP     BB 1188   4.306   0.665   2.505
    2TRP    SC1 1189   4.328   0.517   2.780
    2TRP    SC2 1190   4.367   0.637   2.952
    2TRP    SC3 1191   4.140   0.364   2.945
    2TRP    SC4 1192   4.168   0.484   3.133
    3TYR     BB 1193   4.225   0.928   2.672
    3TYR    SC1 1194   4.231   1.132   2.464
    3TYR    SC2 1195   4.172   1.342   2.566
    3TYR    SC3 1196   4.340   1.457   2.434
    1TYR     BB 1197   0.538   6.377   5.579
    1TYR    SC1 1198   0.305   6.532   5.714
    1TYR    SC2 1199   0.129   6.448   5.573
    1TYR    SC3 1200  -0.023   6.437   5.762
    2TRP     BB 1201   0.299   6.086   5.585
    2TRP    SC1 1202   0.500   5.929   5.405
    2TRP    SC2 1203   0.425   5.760   5.298
    2TRP    SC3 1204   0.652   5.996   5.163
    2TRP    SC4 1205   0.578   5.824   5.038
    3TYR     BB 1206   0.065   5.971   5.395
    3TYR    SC1 1207  -0.173   6.051   5.543
    3TYR    SC2 1208  -0.365   5.975   5.418
    3TYR    SC3 1209  -0.477   5.911   5.624
    1TYR     BB 1210   4.452   5.460   4.172
    1TYR    SC1 1211   4.465   5.289   3.912
    1TYR    SC2 1212   4.245   5.343   3.831
    1TYR    SC3 1213   4.328   5.349   3.603
    2TRP     BB 1214   4.300   5.721   3.947
    2TRP    SC1 1215   4.231   5.887   4.202
    2TRP    SC2 1216   4.082   6.040   4.183
    2TRP    SC3 1217   4.110   5.823   4.461
    2TRP    SC4 1218   3.946   5.976   4.452
    3TYR     BB 1219   4.006   5.796   3.839
    3TYR    SC1 1220   4.020   5.700   3.564
    3TYR    SC2 1221   3.807   5.745   3.460
    3TYR    SC3 1222   3.918   5.810   3.254
    1TYR     BB 1223   0.312   2.315   1.067
    1TYR    SC1 1224   0.284   2.040   0.923
    1TYR    SC2 1225   0.220   2.127   0.707
    1TYR    SC3 1226   0.352   1.956   0.596
    2TRP     BB 1227   0.489   2.420   0.751
    2TRP    SC1 1228   0.482   2.714   0.856
    2TRP    SC2 1229   0.511   2.870   0.713
    2TRP    SC3 1230   0.274   2.882   0.977
    2TRP    SC4 1231   0.291   3.052   0.831
    3TYR     BB 1232   0.405   2.538   0.463
    3TYR    SC1 1233   0.438   2.304   0.293
    3TYR    SC2 1234   0.380   2.369   0.069
    3TYR    SC3 1235   0.563   2.236  -0.020
    1TYR     BB 1236   3.901   3.160   7.348
    1TYR    SC1 1237   3.994   3.438   7.242
    1TYR    SC2 1238   3.786   3.501   7.139
    1TYR    SC3 1239   3.817   3.731   7.210
    2TRP     BB 1240   3.590   3.347   7.452
    2TRP    SC1 1241   3.458   3.072   7.518
    2TRP    SC2 1242   3.245   3.067   7.533
    2TRP    SC3 1243   3.440   2.815   7.377
    2TRP    SC4 1244   3.216   2.799   7.382
    3TYR     BB 1245   3.310   3.430   7.317
    3TYR    SC1 1246   3.352   3.714   7.268
    3TYR    SC2 1247   3.153   3.801   7.165
    3TYR    SC3 1248   3.169   4.004   7.296
    1TYR     BB 1249   3.126   6.615   5.492
    1TYR    SC1 1250   2.918   6.532   5.709
    1TYR    SC2 1251   2.724   6.543   5.567
    1TYR    SC3 1252   2.630   6.347   5.676
    2TRP     BB 1253   2.935   6.376   5.272
    2TRP    SC1 1254   3.100   6.483   5.029
    2TRP    SC2 1255   3.021   6.447   4.834
    2TRP    SC3 1256   3.173   6.751   4.934
    2TRP    SC4 1257   3.091   6.728   4.726
    3TYR     BB 1258   2.676   6.389   5.080
    3TYR    SC1 1259   2.477   6.252   5.244
    3TYR    SC2 1260   2.271   6.250   5.120
    3TYR    SC3 1261   2.226   6.023   5.193
    1TYR     BB 1262   4.495   5.303   6.689
    1TYR    SC1 1263   4.535   5.530   6.480
    1TYR    SC2 1264   4.598   5.702   6.636
    1TYR    SC3 1265   4.761   5.790   6.479
    2TRP     BB 1266   4.816   5.434   6.837
    2TRP    SC1 1267   4.768   5.247   7.082
    2TRP    SC2 1268   4.875   5.292   7.262
    2TRP    SC3 1269   4.536   5.189   7.252
    2TRP    SC4 1270   4.635   5.237   7.448
    3TYR     BB 1271   4.902   5.662   7.048
    3TYR    SC1 1272   5.008   5.867   6.870
    3TYR    SC2 1273   5.079   6.052   7.007
    3TYR    SC3 1274   5.276   6.083   6.868
    1TYR     BB 1275   1.086   5.515   3.744
    1TYR    SC1 1276   1.292   5.694   3.893
    1TYR    SC2 1277   1.162   5.728   4.093
    1TYR    SC3 1278   1.362   5.714   4.229
    2TRP     BB 1279   1.049   5.344   4.078
    2TRP    SC1 1280   0.804   5.189   3.962
    2TRP    SC2 1281   0.669   5.100   4.101
    2TRP    SC3 1282   0.569   5.268   3.805
    2TRP    SC4 1283   0.416   5.182   3.945
    3TYR     BB 1284   0.874   5.386   4.345
    3TYR    SC1 1285   1.073   5.497   4.527
    3TYR    SC2 1286   0.964   5.538   4.738
    3TYR    SC3 1287   1.160   5.458   4.858
    1TYR     BB 1288   2.539   2.680   5.359
    1TYR    SC1 1289   2.233   2.655   5.303
    1TYR    SC2 1290   2.175   2.882   5.358
    1TYR    SC3 1291   2.013   2.887   5.177
    2TRP     BB 1292   2.506   3.007   5.173
    2TRP    SC1 1293   2.798   3.075   5.262
    2TRP    SC2 1294   2.858   3.280   5.253
    2TRP    SC3 1295   2.943   3.059   5.517
    2TRP    SC4 1296   3.009   3.274   5.522
    3TYR     BB 1297   2.431   3.312   5.246
    3TYR    SC1 1298   2.160   3.330   5.139
    3TYR    SC2 1299   2.080   3.554   5.182
    3TYR    SC3 1300   1.975   3.562   4.963
    4W        W 1301   0.349   1.633   2.100
    5W        W 1302   4.010   5.867   1.494
    6W        W 1303   5.106   7.621   1.686
    7W        W 1304   5.683   0.072   4.002
    8W        W 1305   2.537   3.319   3.106
    9W        W 1306   3.102   5.951   3.455
   10W        W 1307   3.635   6.731   2.684
   11W        W 1308   3.112   3.406   6.189
   12W        W 1309   3.682   2.669   5.460
   13W        W 1310   0.928   6.753   6.162
   14W        W 1311   6.117   6.459   3.240
   15W        W 1312   7.256   3.126   1.905
   16W        W 1313   4.479   7.132   6.676
   17W        W 1314   3.548   2.037   0.913
   18W        W 1315   4.614   4.267   3.949
   19W        W 1316   4.204   3.886   1.026
   20W        W 1317   3.255   5.763   3.879
   21W        W 1318   2.552   6.182   3.404
   22W        W 1319   3.957   5.410   1.281
   23W        W 1320   0.331   3.089   3.924
   24W        W 1321   5.364   2.299   5.526
   25W        W 1322   2.937   0.037   5.008
   26W        W 1323   1.453   4.276   3.805
   27W        W 1324   3.032   2.144   5.556
   28W        W 1325   0.429   6.932   3.776
   29W        W 1326   1.095   7.587   5.519
   30W        W 1327   7.929   1.101   3.258
   31W        W 1328   0.180   4.842   4.244
   32W        W 1329   7.654   6.841   5.972
   33W        W 1330   3.181   1.827   1.211
   34W        W 1331   4.354   0.291   4.467
   35W        W 1332   3.860   6.313   1.114
   36W        W 1333   3.430   4.024   2.538
   37W        W 1334   5.533   0.490   3.665
   38W        W 1335   7.517   7.177   2.175
   39W        W 1336   2.251   0.633   4.073
   40W        W 1337   3.736   4.560   6.753
   41W        W 1338   7.851   2.797   3.902
   42W        W 1339   4.568   6.469   2.461
   43W        W 1340   0.606   2.177   6.213
   44W        W 1341   4.639   0.850   7.747
   45W        W 1342   2.617   7.080   0.519
   46W        W 1343   6.733   1.195   3.868
   47W        W 1344   1.602   2.575   3.865
   48W        W 1345   1.855   6.457   3.898
   49W        W 1346   5.253   5.959   0.677
   50W        W 1347   2.220   4.370   2.646
   51W        W 1348   6.449   1.641   4.888
   52W        W 1349   0.387   1.607   7.962
   53W        W 1350   1.261   6.947   0.428
   54W        W 1351   2.307   7.508   1.384
   55W        W 1352   6.442   3.540   3.828
   56W        W 1353   3.367   3.532   4.367
   57W        W 1354   4.803   0.282   2.107
   58W        W 1355   7.309   0.266   0.194
   59W        W 1356   6.292   0.807   0.486
   60W        W 1357   7.424   3.158   0.769
   61W        W 1358   5.880   5.100   7.157
   62W        W 1359   2.098   2.272   1.668
   63W        W 1360   6.438   4.924   7.950
   64W        W 1361   1.608   1.490   1.416
   65W        W 1362   6.084   2.032   2.232
   66W        W 1363   5.349   6.095   3.993
   67W        W 1364   1.816   2.172   7.150
   68W        W 1365   5.173   2.658   1.706
   69W        W 1366   6.188   7.690   0.733
   70W        W 1367   1.268   4.458   2.892
   71W        W 1368   7.814   7.422   5.045
   72W        W 1369   1.797   0.656   7.022
   73W        W 1370   4.102   4.177   4.143
   74W        W 1371   2.391   5.181   5.671
   75W        W 1372   0.259   7.046   0.824
   76W        W 1373   6.056   5.766   5.520
   77W        W 1374   5.269   3.839   4.784
   78W        W 1375   2.142   3.523   0.605
   79W        W 1376   5.922   4.214   1.251
   80W        W 1377   2.383   2.228   2.244
   81W        W 1378   6.591   0.284   2.179
   82W        W 1379   0.546   4.305   3.982
   83W        W 1380   2.239   4.351   6.496
   84W        W 1381   6.496   5.044   1.240
   85W        W 1382   3.515   4.667   4.942
   86W        W 1383   0.394   3.751   3.247
   87W        W 1384   6.165   6.953   1.111
   88W        W 1385   7.728   0.116   7.149
   89W        W 1386   2.906   4.490   0.247
   90W        W 1387   3.678   0.463   4.635
   91W        W 1388   3.544   5.250   4.852
   92W        W 1389   7.724   7.128   1.245
   93W        W 1390   4.011   0.806   7.564
   94W        W 1391   0.266   3.307   6.067
   95W        W 1392   5.281   7.196   5.432
   96W        W 1393   2.052   0.513   6.055
   97W        W 1394   3.922   2.298   4.099
   98W        W 1395   0.770   0.423   0.434
   99W        W 1396   2.607   7.020   6.969
  100W        W 1397   2.810   7.885   0.487
  101W        W 1398   3.742   4.648   2.876
  102W        W 1399   3.497   4.702   7.377
  103W        W 1400   2.552   4.984   3.352
  104W        W 1401   1.083   6.169   5.039
  105W        W 1402   6.865   3.091   5.000
  106W        W 1403   3.990   4.941   5.149
  107W        W 1404   5.907   7.058   7.581
  108W        W 1405   3.354   0.720   1.981
  109W        W 1406   2.808   2.563   2.111
  110W        W 1407   4.883   2.466   7.680
  111W        W 1408   7.276   5.425   2.118
  112W        W 1409   6.424   7.762   5.954
  113W        W 1410   2.332   2.230   1.251
  114W        W 1411   6.511   6.696   6.796
  115W        W 1412   4.572   5.569   2.581
  116W        W 1413   3.491   7.120   0.669
  117W        W 1414   3.830   6.778   4.809
  118W        W 1415   4.149   3.775   0.503
  119W        W 1416   1.068   1.917   5.980
  120W        W 1417   3.216   4.376   2.811
  121W        W 1418   3.555   4.534   2.444
  122W        W 1419   2.818   0.909   4.513
  123W        W 1420   7.292   5.438   1.135
  124W        W 1421   4.900   2.969   1.462
  125W        W 1422   2.314   6.966   3.819
  126W        W 1423   3.631   5.801   0.429
  127W        W 1424   6.190   6.168   2.866
  128W        W 1425   0.738   4.462   0.887
  129W        W 1426   0.564   4.822   1.825
  130W        W 1427   4.805   5.036   6.253
  131W        W 1428   3.710   7.655   3.799
  132W        W 1429   7.245   2.690   7.612
  133W        W 1430   5.786   5.809   0.667
  134W        W 1431   0.612   1.030   7.085
  135W        W 1432   2.590   4.619   1.098
  136W        W 1433   7.009   0.626   1.518
  137W        W 1434   1.273   0.657   6.567
  138W        W 1435   7.214   5.267   4.884
  139W        W 1436   0.325   6.638   1.251
  140W        W 1437   6.418   3.571   0.115
  141W        W 1438   1.334   5.273   7.004
  142W        W 1439   5.923   0.865   0.157
  143W        W 1440   2.861   6.097   1.457
  144W        W 1441   7.281   6.851   6.945
  145W        W 1442   0.347   7.146   3.114
  146W        W 1443   3.678   3.672   0.904
  147W        W 1444   1.469   6.671   5.382
  148W        W 1445   2.608   7.013   1.645
  149W        W 1446   6.324   2.586   2.869
  150W        W 1447   6.121   1.236   7.826
  151W        W 1448   7.235   4.956   6.943
  152W        W 1449   3.061   4.133   3.268
  153W        W 1450   3.865   0.144   3.816
  154W        W 1451   4.545   3.698   6.398
  155W        W 1452   3.100   4.999   4.788
  156W        W 1453   5.971   3.294   4.615
  157W        W 1454   1.229   1.111   5.164
  158W        W 1455   1.495   6.815   1.374
  159W        W 1456   3.677   4.566   4.058
  160W        W 1457   3.060   1.377   1.006
  161W        W 1458   1.439   3.755   2.342
  162W        W 1459   6.225   4.142   0.710
  163W        W 1460   7.406   4.118   1.879
  164W        W 1461   4.317   0.499   1.908
  165W        W 1462   2.654   3.201   0.720
  166W        W 1463   1.345   2.618   2.437
  167W        W 1464   0.190   2.337   5.226
  168W        W 1465   2.368   0.020   4.519
  169W        W 1466   2.731   6.631   0.322
  170W        W 1467   0.428   1.998   1.685
  171W        W 1468   1.161   0.086   5.427
  172W        W 1469   5.285   7.593   5.142
  173W        W 1470   7.071   3.024   0.035
  174W        W 1471   5.973   2.274   4.878
  175W        W 1472   3.485   4.051   4.160
  176W        W 1473   2.242   4.833   0.719
  177W        W 1474   5.497   6.915   4.538
  178W        W 1475   2.980   2.287   7.647
  179W        W 1476   0.298   4.821   0.245
  180W        W 1477   3.681   2.474   1.733
  181W        W 1478   1.186   3.504   2.720
  182W        W 1479   7.495   0.885   7.167
  183W        W 1480   2.179   5.064   7.217
  184W        W 1481   4.348   6.632   6.331
  185W        W 1482   0.068   0.328   2.342
  186W        W 1483   5.498   6.883   4.043
  187W        W 1484   6.524   1.236   6.236
  188W        W 1485   7.408   6.166   4.959
  189W        W 1486   0.698   6.968   1.731
  190W        W 1487   0.445   4.265   0.421
  191W        W 1488   2.303   2.590   3.904
  192W        W 1489   0.907   7.773   0.823
  193W        W 1490   0.171   7.871   4.160
  194W        W 1491   0.862   3.544   6.816
  195W        W 1492   7.556   5.320   3.163
  196W        W 1493   7.566   2.429   7.824
  197W        W 1494   3.559   1.697   5.985
  198W        W 1495   6.247   7.451   7.550
  199W        W 1496   1.325   5.009   3.067
  200W        W 1497   3.618   0.917   3.868
  201W        W 1498   1.347   4.575   1.821
  202W        W 1499   0.626   1.066   4.390
  203W        W 1500   6.745   7.306   0.052
  204W        W 1501   6.058   3.145   0.224
  205W        W 1502   2.843   6.163   4.726
  206W        W 1503   1.682   5.368   1.491
  207W        W 1504   3.664   4.151   3.681
  208W        W 1505   2.867   2.023   2.130
  209W        W 1506   7.317   7.251   0.731
  210W        W 1507   2.995   1.542   6.545
  211W        W 1508   7.851   2.088   6.810
  212W        W 1509   1.278   4.324   5.223
  213W        W 1510   1.768   4.770   0.877
  214W        W 1511   4.800   6.174   2.801
  215W        W 1512   2.117   1.289   4.259
  216W        W 1513   0.995   2.283   0.036
  217W        W 1514   1.393   3.615   0.220
  218W        W 1515   2.434   5.388   4.233
  219W        W 1516   6.572   3.457   4.822
  220W        W 1517   5.078   0.628   5.918
  221W        W 1518   2.301   7.087   5.753
  222W        W 1519   1.958   2.741   4.232
  223W        W 1520   1.209   3.848   3.757
  224W        W 1521   1.171   5.164   0.345
  225W        W 1522   6.131   1.084   5.860
  226W        W 1523   6.559   4.297   3.034
  227W        W 1524   1.930   4.403   3.622
  228W        W 1525   1.653   2.963   7.762
  229W        W 1526   0.845   0.004   1.893
  230W        W 1527   3.685   4.593   1.142
  231W        W 1528   4.763   6.233   1.425
  232W        W 1529   3.548   0.353   4.147
  233W        W 1530   2.900   7.568   1.425
  234W        W 1531   1.814   4.223   0.816
  235W        W 1532   1.022   4.864   2.682
  236W        W 1533   2.301   1.283   3.573
  237W        W 1534   5.328   7.070   1.319
  238W        W 1535   5.922   4.946   4.852
  239W        W 1536   5.649   3.354   2.642
  240W        W 1537   7.641   5.803   3.075
  241W        W 1538   5.314   0.911   3.796
  242W        W 1539   5.943   4.663   6.881
  243W        W 1540   1.579   5.387   0.174
  244W        W 1541   0.395   0.226   3.592
  245W        W 1542   0.846   4.409   1.617
  246W        W 1543   7.103   5.197   3.607
  247W        W 1544   0.108   5.363   5.096
  248W        W 1545   4.218   6.098   3.471
  249W        W 1546   5.229   4.522   7.471
  250W        W 1547   1.375   3.430   1.164
  251W        W 1548   1.671   4.157   5.560
  252W        W 1549   7.044   7.394   2.370
  253W        W 1550   1.383   5.875   3.643
  254W        W 1551   5.422   3.768   7.884
  255W        W 1552   6.533   5.993   5.084
  256W        W 1553   3.025   4.593   7.244
  257W        W 1554   4.435   3.823   1.570
  258W        W 1555   5.675   6.250   7.689
  259W        W 1556   2.804   4.582   3.176
  260W        W 1557   4.342   0.358   3.837
  261W        W 1558   4.244   0.539   5.236
  262W        W 1559   3.775   3.827   1.334
  263W        W 1560   1.353   5.632   0.531
  264W        W 1561   0.524   2.258   3.431
  265W        W 1562   2.563   2.588   2.961
  266W        W 1563   3.545   7.783   0.149
  267W        W 1564   5.677   6.043   5.750
  268W        W 1565   0.087   7.329   0.257
  269W        W 1566   1.748   1.354   0.943
  270W        W 1567   0.114   5.180   2.143
  271W        W 1568   6.784   5.617   3.362
  272W        W 1569   2.731   4.151   6.901
  273W        W 1570   0.792   5.281   1.646
  274W        W 1571   0.422   5.714   0.978
  275W        W 1572   2.350   4.732   5.471
  276W        W 1573   4.647   7.242   4.709
  277W        W 1574   7.841   4.210   2.193
  278W        W 1575   4.992   0.675   6.877
  279W        W 1576   6.557   0.721   1.160
  280W        W 1577   0.535   4.424   3.478
  281W        W 1578   1.979   2.104   6.411
  282W        W 1579   4.848   2.907   0.667
  283W        W 1580   2.481   2.362   6.005
  284W        W 1581   0.632   3.857   7.284
  285W        W 1582   1.758   0.699   6.406
  286W        W 1583   0.524   7.235   5.057
  287W        W 1584   4.635   4.146   6.694
  288W        W 1585   2.712   4.367   2.746
  289W        W 1586   5.425   3.722   2.390
  290W        W 1587   6.697   4.696   3.271
  291W        W 1588   5.016   5.636   1.548
  292W        W 1589   1.617   1.242   2.597
  293W        W 1590   2.148   5.449   2.572
  294W        W 1591   7.241   7.263   5.065
  295W        W 1592   2.191   7.073   3.340
  296W        W 1593   6.899   1.528   7.660
  297W        W 1594   0.805   4.184   0.003
  298W        W 1595   5.704   5.121   3.873
  299W        W 1596   0.520   2.210   6.938
  300W        W 1597   2.932   0.801   0.370
  301W        W 1598   7.000   5.390   5.643
  302W        W 1599   2.837   5.883   7.389
  303W        W 1600   6.816   7.096   0.521
  304W        W 1601   4.889   1.207   6.940
  305W        W 1602   6.705   3.832   0.546
  306W        W 1603   1.004   5.143   2.218
  307W        W 1604   5.003   2.040   3.247
  308W        W 1605   3.324   5.958   2.361
  309W        W 1606   6.530   3.909   6.745
  310W        W 1607   2.133   6.592   5.974
  311W        W 1608   0.997   2.101   5.539
  312W        W 1609   1.283   4.261   2.374
  313W        W 1610   2.328   1.500   4.662
  314W        W 1611   6.342   1.268   6.690
  315W        W 1612   1.301   6.551   2.309
  316W        W 1613   0.777   1.492   0.827
  317W        W 1614   2.547   1.040   6.531
  318W        W 1615   3.382   1.587   2.877
  319W        W 1616   7.406   4.704   5.392
  320W        W 1617   6.076   0.833   5.340
  321W        W 1618   2.768   3.633   7.114
  322W        W 1619   6.681   7.391   7.347
  323W        W 1620   5.999   6.606   7.491
  324W        W 1621   0.098   2.832   0.606
  325W        W 1622   2.497   5.124   1.054
  326W        W 1623   5.570   2.933   1.837
  327W        W 1624   5.911   3.237   3.193
  328W        W 1625   4.981   5.828   7.675
  329W        W 1626   4.575   2.868   4.304
  330W        W 1627   0.994   4.818   1.317
  331W        W 1628   2.646   5.930   6.748
  332W        W 1629   6.496   1.454   1.899
  333W        W 1630   5.963   5.419   1.042
  334W        W 1631   5.321   1.660   3.240
  335W        W 1632   5.537   3.717   0.458
  336W        W 1633   4.323   2.836   0.552
  337W        W 1634   0.886   5.340   6.281
  338W        W 1635   0.306   1.856   4.245
  339W        W 1636   7.326   2.967   4.964
  340W        W 1637   4.214   5.143   5.601
  341W        W 1638   5.152   1.309   0.457
  342W        W 1639   4.337   3.721   2.079
  343W        W 1640   2.805   0.133   5.663
  344W        W 1641   6.462   2.244   2.499
  345W        W 1642   2.413   5.702   5.113
  346W        W 1643   2.356   4.649   0.183
  347W        W 1644   2.193   3.020   0.659
  348W        W 1645   7.972   4.131   5.298
  349W        W 1646   6.039   6.093   7.368
  350W        W 1647   7.456   5.787   1.422
  351W        W 1648   5.119   3.721   2.772
  352W        W 1649   7.500   3.732   7.005
  353W        W 1650   4.362   4.703   3.421
  354W        W 1651   1.016   1.658   3.062
  355W        W 1652   6.397   4.930   5.059
  356W        W 1653   4.367   0.630   6.638
  357W        W 1654   1.921   5.198   1.019
  358W        W 1655   2.253   4.285   2.069
  359W        W 1656   0.523   0.084   2.524
  360W        W 1657   7.573   0.969   0.532
  361W        W 1658   5.668   7.368   6.679
  362W        W 1659   7.206   6.744   0.661
  363W        W 1660   3.928   5.259   4.369
  364W        W 1661   6.934   1.523   1.598
  365W        W 1662   3.423   1.148   3.498
  366W        W 1663   0.241   3.307   1.316
  367W        W 1664   0.183   1.030   1.247
  368W        W 1665   0.825   0.474   5.265
  369W        W 1666   5.184   4.770   1.939
  370W        W 1667   1.362   4.615   3.381
  371W        W 1668   1.752   2.802   3.190
  372W        W 1669   0.058   2.030   4.773
  373W        W 1670   2.681   4.176   7.386
  374W        W 1671   0.707   7.542   3.167
  375W        W 1672   6.379   5.864   6.323
  376W        W 1673   1.168   3.771   4.365
  377W        W 1674   2.601   7.345   6.069
  378W        W 1675   0.563   6.180   0.034
  379W        W 1676   0.615   1.893   5.790
  380W        W 1677   3.021   6.917   3.273
  381W        W 1678   2.204   3.416   0.101
  382W        W 1679   7.823   1.835   5.082
  383W        W 1680   6.666   3.551   7.171
  384W        W 1681   4.694   0.868   1.349
  385W        W 1682   3.953   1.633   4.995
  386W        W 1683   6.228   2.115   7.354
  387W        W 1684   2.339   0.609   0.742
  388W        W 1685   3.541   1.808   0.365
  389W        W 1686   6.492   5.083   5.554
  390W        W 1687   0.225   6.259   7.246
  391W        W 1688   0.928   1.731   3.962
  392W        W 1689   7.648   1.659   2.228
  393W        W 1690   2.513   1.885   7.289
  394W        W 1691   2.496   1.095   3.080
  395W        W 1692   0.595   3.849   4.288
  396W        W 1693   3.435   2.324   4.412
  397W        W 1694   4.477   3.244   7.145
  398W        W 1695   2.804   5.000   7.134
  399W        W 1696   5.180   3.234   1.965
  400W        W 1697   3.374   6.613   3.132
  401W        W 1698   7.344   7.811   6.781
  402W        W 1699   0.731   3.864   1.693
  403W        W 1700   0.737   2.109   1.248
  404W        W 1701   6.718   4.841   6.852
  405W        W 1702   4.272   7.015   3.315
  406W        W 1703   1.687   4.864   5.992
  407W        W 1704   5.991   0.370   6.393
  408W        W 1705   5.310   2.779   5.362
  409W        W 1706   2.167   5.026   7.731
  410W        W 1707   6.254   6.507   4.976
  411W        W 1708   0.761   1.889   0.418
  412W        W 1709   2.568   3.468   6.353
  413W        W 1710   7.669   4.637   0.673
  414W        W 1711   4.450   6.418   4.240
  415W        W 1712   4.368   6.712   2.046
  416W        W 1713   4.959   3.917   5.607
  417W        W 1714   0.909   0.784   7.552
  418W        W 1715   1.139   0.905   1.385
  419W        W 1716   3.135   4.586   7.784
  420W        W 1717   5.608   4.952   0.798
  421W        W 1718   3.147   0.050   4.128
  422W        W 1719   2.707   0.257   1.550
  423W        W 1720   7.276   2.491   0.280
  424W        W 1721   1.401   0.343   7.024
  425W        W 1722   1.652   5.783   5.755
  426W        W 1723   3.212   4.240   6.956
  427W        W 1724   6.014   3.418   5.597
  428W        W 1725   5.090   3.496   3.901
  429W        W 1726   2.204   1.607   1.031
  430W        W 1727   5.933   7.313   7.178
  431W        W 1728   0.423   3.184   2.254
  432W        W 1729   5.206   1.158   3.101
  433W        W 1730   7.671   3.454   3.286
  434W        W 1731   0.360   0.848   7.618
  435W        W 1732   3.274   1.647   2.093
  436W        W 1733   1.492   2.380   7.774
  437W        W 1734   5.842   1.869   0.596
  438W        W 1735   6.914   3.731   3.693
  439W        W 1736   6.665   6.398   5.403
  440W        W 1737   7.928   0.867   6.951
  441W        W 1738   4.297   1.466   3.131
  442W        W 1739   6.904   5.757   2.450
  443W        W 1740   0.487   6.888   0.434
  444W        W 1741   3.069   3.815   3.953
  445W        W 1742   0.201   7.539   6.349
  446W        W 1743   1.409   7.471   2.213
  447W        W 1744   4.673   2.041   7.892
  448W        W 1745   2.859   1.881   4.174
  449W        W 1746   0.198   1.316   1.688
  450W        W 1747   6.652   7.714   3.202
  451W        W 1748   2.427   3.180   2.033
  452W        W 1749   6.265   7.347   0.304
  453W        W 1750   7.092   2.642   5.770
  454W        W 1751   2.531   3.557   4.853
  455W        W 1752   6.769   2.803   5.426
  456W        W 1753   1.299   3.182   0.545
  457W        W 1754   1.273   1.200   2.197
  458W        W 1755   7.412   3.771   5.062
  459W        W 1756   0.548   4.539   4.546
  460W        W 1757   3.950   2.589   7.550
  461W        W 1758   7.042   2.932   0.499
  462W        W 1759   4.685   3.375   1.712
  463W        W 1760   2.995   7.596   5.450
  464W        W 1761   4.314   4.547   4.889
  465W        W 1762   6.508   7.541   1.735
  466W        W 1763   4.688   3.956   2.447
  467W        W 1764   6.934   7.511   5.920
  468W        W 1765   5.246   2.577   1.201
  469W        W 1766   0.639   4.149   1.266
  470W        W 1767   7.077   6.869   0.119
  471W        W 1768   1.810   1.959   3.307
  472W        W 1769   2.555   5.326   7.457
  473W        W 1770   2.006   2.279   5.823
  474W        W 1771   5.703   3.147   5.174
  475W        W 1772   5.744   1.778   2.600
  476W        W 1773   6.534   2.133   3.736
  477W        W 1774   4.633   0.642   4.197
  478W        W 1775   2.983   1.256   3.038
  479W        W 1776   5.067   6.904   3.109
  480W        W 1777   0.177   6.841   5.469
  481W        W 1778   0.100   5.858   0.041
  482W        W 1779   5.120   6.472   2.237
  483W        W 1780   3.346   3.366   2.062
  484W        W 1781   4.943   3.212   7.333
  485W        W 1782   1.215   4.687   0.844
  486W        W 1783   3.028   7.407   0.527
  487W        W 1784   7.277   4.794   2.733
  488W        W 1785   0.830   1.719   7.354
  489W        W 1786   4.353   3.959   0.011
  490W        W 1787   4.966   2.867   6.984
  491W        W 1788   6.613   7.421   6.380
  492W        W 1789   4.620   3.907   0.719
  493W        W 1790   4.987   7.461   7.894
  494W        W 1791   7.222   7.579   7.508
  495W        W 1792   7.792   6.749   0.286
  496W        W 1793   7.772   0.232   5.642
  497W        W 1794   5.982   5.966   5.055
  498W        W 1795   0.497   0.157   4.251
  499W        W 1796   6.420   7.919   0.320
  500W        W 1797   5.940   6.054   0.239
  501W        W 1798   4.342   2.977   1.604
  502W        W 1799   2.628   3.594   2.729
  503W        W 1800   3.020   1.291   5.221
  504W        W 1801   4.653   2.617   1.232
  505W        W 1802   7.318   0.141   6.262
  506W        W 1803   6.209   0.931   1.592
  507W        W 1804   0.889   5.918   0.791
  508W        W 1805   4.184   0.803   1.556
  509W        W 1806   5.660   4.132   7.602
  510W        W 1807   1.283   4.695   6.268
  511W        W 1808   1.247   6.209   5.510
  512W        W 1809   4.110   1.383   5.752
  513W        W 1810   4.118   4.271   1.307
  514W        W 1811   6.839   5.566   1.290
  515W        W 1812   4.773   7.483   0.258
  516W        W 1813   7.238   4.283   6.320
  517W        W 1814   7.635   5.228   2.470
  518W        W 1815   0.224   3.742   0.793
  519W        W 1816   1.908   6.078   7.028
  520W        W 1817   0.717   3.486   0.585
  521W        W 1818   6.343   2.126   3.278
  522W        W 1819   3.835   1.255   7.451
  523W        W 1820   3.187   0.885   5.582
  524W        W 1821   5.502   3.440   1.015
  525W        W 1822   0.033   4.036   6.689
  526W        W 1823   3.401   7.094   6.261
  527W        W 1824   7.723   6.265   7.387
  528W        W 1825   5.805   4.808   1.212
  529W        W 1826   6.441   5.309   7.423
  530W        W 1827   5.144   5.357   7.685
  531W        W 1828   7.520   2.191   7.253
  532W        W 1829   4.744   5.516   5.387
  533W        W 1830   0.035   2.034   2.958
  534W        W 1831   3.375   4.107   0.903
  535W        W 1832   3.017   5.364   3.640
  536W        W 1833   0.318   4.358   1.668
  537W        W 1834   0.425   4.345   5.912
  538W        W 1835   2.542   1.777   2.588
  539W        W 1836   7.378   5.867   1.885
  540W        W 1837   5.808   0.551   0.559
  541W        W 1838   7.877   2.039   7.607
  542W        W 1839   5.204   3.543   1.426
  543W        W 1840   1.677   2.861   5.916
  544W        W 1841   2.080   0.539   4.640
  545W        W 1842   4.071   2.436   0.616
  546W        W 1843   5.158   5.228   6.585
  547W        W 1844   0.143   0.560   4.410
  548W        W 1845   7.413   4.681   5.948
  549W        W 1846   7.991   5.633   6.639
  550W        W 1847   3.832   7.376   0.280
  551W        W 1848   0.286   5.890   4.577
  552W        W 1849   2.289   0.991   6.095
  553W        W 1850   2.265   7.063   5.248
  554W        W 1851   2.160   2.927   2.892
  555W        W 1852   1.774   5.224   7.423
  556W        W 1853   4.399   0.978   5.528
  557W        W 1854   5.627   3.686   6.405
  558W        W 1855   7.259   2.940   1.332
  559W        W 1856   1.227   1.237   0.955
  560W        W 1857   1.792   4.490   5.249
  561W        W 1858   3.396   7.434   1.537
  562W        W 1859   4.232   3.931   7.043
  563W        W 1860   3.007   1.081   6.393
  564W        W 1861   6.796   4.395   4.888
  565W        W 1862   3.604   3.499   6.074
  566W        W 1863   4.930   6.797   1.256
  567W        W 1864   2.289   3.106   4.016
  568W        W 1865   5.397   7.156   7.021
  569W        W 1866   1.186   5.085   5.902
  570W        W 1867   7.176   0.904   7.736
  571W        W 1868   2.805   4.665   6.760
  572W        W 1869   6.100   1.214   7.252
  573W        W 1870   4.819   3.146   4.692
  574W        W 1871   6.234   3.081   6.213
  575W        W 1872   6.922   4.502   4.361
  576W        W 1873   2.800   6.112   3.806
  577W        W 1874   7.563   0.563   0.850
  578W        W 1875   6.503   3.116   0.416
  579W        W 1876   5.289   4.868   1.395
  580W        W 1877   0.424   7.201   6.711
  581W        W 1878   0.152   2.032   6.016
  582W        W 1879   7.587   4.028   2.743
  583W        W 1880   2.291   0.858   7.014
  584W        W 1881   3.216   2.553   6.908
  585W        W 1882   4.125   0.137   4.980
  586W        W 1883   4.016   0.967   6.795
  587W        W 1884   0.603   5.519   7.381
  588W        W 1885   6.426   3.661   7.654
  589W        W 1886   4.900   5.178   4.854
  590W        W 1887   1.500   7.354   5.865
  591W        W 1888   3.738   3.949   6.893
  592W        W 1889   6.105   3.523   5.085
  593W        W 1890   1.396   5.128   1.171
  594W        W 1891   5.814   6.463   4.070
  595W        W 1892   6.426   6.802   4.629
  596W        W 1893   1.918   1.408   3.199
  597W        W 1894   7.084   0.246   7.757
  598W        W 1895   4.761   4.458   7.624
  599W        W 1896   5.476   5.506   3.062
  600W        W 1897   2.863   3.651   4.411
  601W        W 1898   7.743   2.535   6.986
  602W        W 1899   3.772   5.184   5.908
  603W        W 1900   7.319   0.592   3.824
  604W        W 1901   0.700   2.625   7.709
  605W        W 1902   7.696   4.389   5.619
  606W        W 1903   3.732   1.920   4.338
  607W        W 1904   2.483   6.525   4.522
  608W        W 1905   5.663   7.312   0.318
  609W        W 1906   5.389   2.908   7.218
  610W        W 1907   6.666   1.431   7.086
  611W        W 1908   7.727   7.693   5.756
  612W        W 1909   6.520   5.539   5.383
  613W        W 1910   3.165   0.879   0.806
  614W        W 1911   2.648   2.429   4.900
  615W        W 1912   4.099   7.265   7.501
  616W        W 1913   7.142   7.191   3.641
  617W        W 1914   5.414   4.967   5.019
  618W        W 1915   1.047   0.730   0.842
  619W        W 1916   3.634   0.799   1.537
  620W        W 1917   3.739   6.172   4.685
  621W        W 1918   2.692   1.409   4.344
  622W        W 1919   7.646   0.601   5.030
  623W        W 1920   0.747   7.548   4.601
  624W        W 1921   1.802   3.796   0.068
  625W        W 1922   4.654   7.471   0.948
  626W        W 1923   3.264   6.732   4.230
  627W        W 1924   1.008   3.978   2.077
  628W        W 1925   0.677   1.078   1.695
  629W        W 1926   6.891   6.336   5.858
  630W        W 1927   1.408   3.908   7.214
  631W        W 1928   4.676   2.608   2.394
  632W        W 1929   5.945   7.734   0.261
  633W        W 1930   1.525   2.450   0.197
  634W        W 1931   0.843   5.491   6.891
  635W        W 1932   7.895   6.664   1.385
  636W        W 1933   4.845   3.903   4.494
  637W        W 1934   1.797   6.203   3.493
  638W        W 1935   7.135   0.546   6.432
  639W        W 1936   4.333   6.850   4.869
  640W        W 1937   2.900   5.411   5.076
  641W        W 1938   3.065   2.670   2.662
  642W        W 1939   3.117   0.315   2.395
  643W        W 1940   6.485   0.695   2.439
  644W        W 1941   3.708   0.846   7.169
  645W        W 1942   1.212   6.050   4.135
  646W        W 1943   4.418   4.685   2.333
  647W        W 1944   3.570   2.692   4.939
  648W        W 1945   3.117   3.245   0.875
  649W        W 1946   3.302   5.552   5.361
  650W        W 1947   3.398   6.302   2.719
  651W        W 1948   7.441   2.521   4.771
  652W        W 1949   5.560   3.464   4.792
  653W        W 1950   3.114   6.425   0.093
  654W        W 1951   4.183   0.432   5.722
  655W        W 1952   4.758   3.178   2.262
  656W        W 1953   7.052   4.064   4.338
  657W        W 1954   0.063   3.334   1.877
  658W        W 1955   4.492   2.315   5.164
  659W        W 1956   6.124   5.431   3.999
  660W        W 1957   2.929   3.730   6.663
  661W        W 1958   6.545   0.630   1.750
  662W        W 1959   4.720   2.586   0.151
  663W        W 1960   3.666   1.042   2.376
  664W        W 1961   4.892   0.678   3.118
  665W        W 1962   6.602   4.315   3.583
  666W        W 1963   4.428   4.893   7.861
  667W        W 1964   0.894   5.629   7.825
  668W        W 1965   1.349   4.504   5.750
  669W        W 1966   5.021   6.502   4.099
  670W        W 1967   5.809   4.553   3.736
  671W        W 1968   7.200   6.199   0.631
  672W        W 1969   7.508   3.429   0.331
  673W        W 1970   7.863   0.510   3.663
  674W        W 1971   7.125   2.817   3.551
  675W        W 1972   6.192   5.055   6.704
  676W        W 1973   0.096   5.650   2.097
  677W        W 1974   5.053   5.760   2.776
  678W        W 1975   0.045   5.409   0.230
  679W        W 1976   6.209   6.210   5.412
  680W        W 1977   0.915   3.151   0.918
  681W        W 1978   3.496   1.107   2.959
  682W        W 1979   1.212   3.620   1.771
  683W        W 1980   1.071   5.493   0.947
  684W        W 1981   0.202   1.289   7.218
  685W        W 1982   6.261   0.329   0.226
  686W        W 1983   7.595   7.058   4.752
  687W        W 1984   5.221   7.081   1.783
  688W        W 1985   2.680   2.372   6.812
  689W        W 1986   0.272   4.236   0.905
  690W        W 1987   5.840   5.692   4.668
  691W        W 1988   2.766   1.303   5.679
  692W        W 1989   6.359   6.594   1.848
  693W        W 1990   5.430   2.222   2.987
  694W        W 1991   4.265   1.979   4.152
  695W        W 1992   5.441   5.763   1.841
  696W        W 1993   0.531   2.365   5.632
  697W        W 1994   2.954   1.700   1.674
  698W        W 1995   0.649   2.401   2.353
  699W        W 1996   5.750   2.488   7.144
  700W        W 1997   1.721   3.936   3.585
  701W        W 1998   3.599   7.066   1.749
  702W        W 1999   6.342   3.027   5.733
  703W        W 2000   4.090   4.384   7.175
  704W        W 2001   5.545   4.090   2.682
  705W        W 2002   2.264   5.237   2.081
  706W        W 2003   5.913   7.713   4.093
  707W        W 2004   3.245   6.402   1.144
  708W        W 2005   5.110   0.302   7.294
  709W        W 2006   2.502   6.522   3.966
  710W        W 2007   4.040   7.897   1.758
  711W        W 2008   5.233   2.606   3.191
  712W        W 2009   5.567   7.716   0.647
  713W        W 2010   4.869   1.991   7.449
  714W        W 2011   3.390   3.753   2.940
  715W        W 2012   0.812   1.401   2.087
  716W        W 2013   3.202   6.231   7.403
  717W        W 2014   1.524   6.920   4.096
  718W        W 2015   1.421   1.412   3.028
  719W        W 2016   7.420   1.326   1.427
  720W        W 2017   2.250   3.925   2.825
  721W        W 2018   2.017   4.018   0.446
  722W        W 2019   2.558   2.666   6.394
  723W        W 2020   4.214   0.131   6.769
  724W        W 2021   7.651   2.160   5.691
  725W        W 2022   7.147   2.379   4.286
  726W        W 2023   6.438   3.904   5.094
  727W        W 2024   2.562   1.742   0.562
  728W        W 2025   7.000   6.917   1.133
  729W        W 2026   5.918   1.346   4.481
  730W        W 2027   7.354   5.835   6.709
  731W        W 2028   4.700   5.783   3.570
  732W        W 2029   4.056   4.719   5.852
  733W        W 2030   5.083   0.796   4.373
  734W        W 2031   3.569   7.764   1.852
  735W        W 2032   3.311   0.291   3.292
  736W        W 2033   1.888   2.036   1.124
  737W        W 2034   3.141   5.918   4.320
  738W        W 2035   1.164   5.531   1.461
  739W        W 2036   1.054   6.590   4.219
  740W        W 2037   2.393   6.021   7.142
  741W        W 2038   3.662   1.541   5.473
  742W        W 2039   3.922   4.919   2.477
  743W        W 2040   3.203   4.382   3.852
  744W        W 2041   3.175   1.203   2.536
  745W        W 2042   4.765   0.817   1.985
  746W        W 2043   0.138   4.991   3.804
  747W        W 2044   6.678   2.203   6.575
  748W        W 2045   2.137   6.064   3.184
  749W        W 2046   5.599   1.795   1.442
  750W        W 2047   1.079   1.219   7.341
  751W        W 2048   6.324   7.800   5.275
  752W        W 2049   0.638   6.022   7.278
  753W        W 2050   7.838   7.938   6.760
  754W        W 2051   5.724   3.797   7.221
  755W        W 2052   4.748   0.991   5.906
  756W        W 2053   1.694   6.996   6.608
  757W        W 2054   6.550   6.219   6.919
  758W        W 2055   4.141   2.484   1.491
  759W        W 2056   4.366   4.879   1.892
  760W        W 2057   3.890   4.464   5.227
  761W        W 2058   4.322   4.220   2.198
  762W        W 2059   7.712   6.556   5.491
  763W        W 2060   6.681   0.257   1.311
  764W        W 2061   6.360   0.096   6.675
  765W        W 2062   5.137   0.074   6.827
  766W        W 2063   6.194   7.259   6.684
  767W        W 2064   7.891   6.294   0.069
  768W        W 2065   1.462   2.385   3.446
  769W        W 2066   6.538   2.591   5.035
  770W        W 2067   6.993   6.038   1.494
  771W        W 2068   6.291   2.003   5.622
  772W        W 2069   1.628   5.686   7.034
  773W        W 2070   0.372   5.154   0.568
  774W        W 2071   0.192   7.138   1.280
  775W        W 2072   3.695   6.274   7.428
  776W        W 2073   7.188   6.624   5.549
  777W        W 2074   3.745   5.473   2.203
  778W        W 2075   2.387   1.610   3.010
  779W        W 2076   2.750   7.132   5.512
  780W        W 2077   1.472   4.161   3.223
  781W        W 2078   3.574   6.717   1.410
  782W        W 2079   5.807   3.849   2.025
  783W        W 2080   4.042   6.809   2.948
  784W        W 2081   1.396   7.287   3.533
  785W        W 2082   1.489   6.440   3.203
  786W        W 2083   5.793   4.260   3.313
  787W        W 2084   3.303   7.064   4.739
  788W        W 2085   7.551   2.447   6.509
  789W        W 2086   3.710   2.616   7.064
  790W        W 2087   2.771   3.120   1.212
  791W        W 2088   7.193   3.845   6.617
  792W        W 2089   3.496   1.347   0.700
  793W        W 2090   5.959   1.680   4.854
  794W        W 2091   4.010   1.473   0.865
  795W        W 2092   3.907   1.399   6.185
  796W        W 2093   6.760   3.430   2.768
  797W        W 2094   2.220   5.611   5.922
  798W        W 2095   5.565   4.482   1.544
  799W        W 2096   0.017   2.878   5.815
  800W        W 2097   5.654   3.685   5.857
  801W        W 2098   4.875   6.902   5.078
  802W        W 2099   3.367   0.318   5.128
  803W        W 2100   4.797   7.291   3.383
  804W        W 2101   2.473   6.320   6.284
  805W        W 2102   2.635   3.243   6.778
  806W        W 2103   7.209   0.112   5.633
  807W        W 2104   6.674   2.198   4.234
  808W        W 2105   1.766   4.509   2.203
  809W        W 2106   1.742   2.104   3.805
  810W        W 2107   3.532   5.255   7.353
  811W        W 2108   6.076   2.859   0.746
  812W        W 2109   6.840   2.037   1.491
  813W        W 2110   4.746   7.648   6.686
  814W        W 2111   6.275   7.544   1.196
  815W        W 2112   6.285   2.643   0.354
  816W        W 2113   3.694   0.903   0.452
  817W        W 2114   1.893   0.839   0.304
  818W        W 2115   5.081   3.448   5.746
  819W        W 2116   7.060   2.886   2.249
  820W        W 2117   7.262   3.375   4.721
  821W        W 2118   4.021   3.014   6.903
  822W        W 2119   1.938   1.209   7.165
  823W        W 2120   2.027   1.006   3.859
  824W        W 2121   5.653   2.313   7.951
  825W        W 2122   1.304   4.926   7.471
  826W        W 2123   4.825   4.081   6.240
  827W        W 2124   5.556   0.551   6.714
  828W        W 2125   6.728   3.740   2.280
  829W        W 2126   5.114   4.551   0.243
  830W        W 2127   7.038   6.970   1.620
  831W        W 2128   3.822   4.518   1.635
  832W        W 2129   4.001   1.172   5.234
  833W        W 2130   3.944   7.955   0.814
  834W        W 2131   0.703   1.015   5.857
  835W        W 2132   7.105   6.582   2.538
  836W        W 2133   3.681   1.747   6.533
  837W        W 2134   5.293   4.796   6.354
  838W        W 2135   0.915   3.159   7.669
  839W        W 2136   1.332   0.205   1.773
  840W        W 2137   5.819   7.572   7.811
  841W        W 2138   4.667   0.544   5.546
  842W        W 2139   5.235   5.420   5.229
  843W        W 2140   3.351   4.753   2.063
  844W        W 2141   5.804   2.667   1.240
  845W        W 2142   5.441   2.297   0.320
  846W        W 2143   4.362   1.525   5.319
  847W        W 2144   7.313   0.298   1.797
  848W        W 2145   0.001   1.151   2.642
  849W        W 2146   2.723   7.498   7.370
  850W        W 2147   1.157   0.291   0.019
  851W        W 2148   2.906   7.091   6.429
  852W        W 2149   4.511   5.557   4.874
  853W        W 2150   5.860   4.474   0.835
  854W        W 2151   3.140   5.477   4.628
  855W        W 2152   6.893   6.693   6.422
  856W        W 2153   4.391   2.575   3.360
  857W        W 2154   2.906   6.379   4.289
  858W        W 2155   2.871   6.934   7.424
  859W        W 2156   0.478   0.095   5.483
  860W        W 2157   3.712   2.699   1.305
  861W        W 2158   1.796   1.134   5.320
  862W        W 2159   4.092   2.239   3.547
  863W        W 2160   1.500   0.397   0.922
  864W        W 2161   6.536   7.195   0.908
  865W        W 2162   5.036   3.241   1.043
  866W        W 2163   6.763   3.246   7.585
  867W        W 2164   7.846   6.979   6.494
  868W        W 2165   4.943   4.920   7.811
  869W        W 2166   2.943   6.998   3.799
  870W        W 2167   6.608   1.653   0.232
  871W        W 2168   1.326   5.599   6.604
  872W        W 2169   0.515   7.604   2.725
  873W        W 2170   2.104   3.453   2.841
  874W        W 2171   5.360   4.774   6.942
  875W        W 2172   3.958   6.118   6.932
  876W        W 2173   4.563   5.871   1.652
  877W        W 2174   0.128   4.512   3.746
  878W        W 2175   0.526   5.648   5.930
  879W        W 2176   6.709   2.108   2.927
  880W        W 2177   1.515   2.327   6.240
  881W        W 2178   4.465   5.572   7.382
  882W        W 2179   6.941   6.530   3.030
  883W        W 2180   5.805   4.177   6.037
  884W        W 2181   7.004   1.155   1.234
  885W        W 2182   6.670   0.107   7.514
  886W        W 2183   5.202   7.213   4.833
  887W        W 2184   0.297   4.506   5.010
  888W        W 2185   0.271   4.677   5.534
  889W        W 2186   4.491   2.303   7.446
  890W        W 2187   4.296   4.753   2.859
  891W        W 2188   2.726   5.544   0.325
  892W        W 2189   3.337   2.878   3.083
  893W        W 2190   3.582   0.331   2.203
  894W        W 2191   2.483   1.644   3.901
  895W        W 2192   4.864   5.840   1.046
  896W        W 2193   0.518   3.301   1.767
  897W        W 2194   6.644   6.410   3.846
  898W        W 2195   5.767   1.207   5.472
  899W        W 2196   7.590   5.210   7.218
  900W        W 2197   3.918   3.500   2.945
  901W        W 2198   7.759   4.400   7.436
  902W        W 2199   1.164   0.380   1.302
  903W        W 2200   1.085   2.146   3.233
  904W        W 2201   2.839   4.805   5.160
  905W        W 2202   6.972   6.161   3.542
  906W        W 2203   1.276   5.980   1.156
  907W        W 2204   4.396   0.151   0.998
  908W        W 2205   3.757   0.708   5.103
  909W        W 2206   4.030   5.915   7.447
  910W        W 2207   5.179   7.568   1.086
  911W        W 2208   3.198   1.616   3.374
  912W        W 2209   7.319   5.022   0.938
  913W        W 2210   6.514   6.061   2.216
  914W        W 2211   3.070   4.476   4.871
  915W        W 2212   3.013   2.894   6.527
  916W        W 2213   5.527   2.920   0.879
  917W        W 2214   0.082   5.279   5.631
  918W        W 2215   6.018   0.832   1.040
  919W        W 2216   3.547   2.545   2.758
  920W        W 2217   1.077   0.354   4.798
  921W        W 2218   2.600   5.145   3.858
  922W        W 2219   5.689   2.920   2.350
  923W        W 2220   6.357   6.420   4.224
  924W        W 2221   2.504   2.739   0.926
  925W        W 2222   2.973   3.959   2.779
  926W        W 2223   7.246   1.188   5.668
  927W        W 2224   5.555   0.154   7.125
  928W        W 2225   0.784   5.443   0.582
  929W        W 2226   4.456   7.403   5.796
  930W        W 2227   3.083   2.675   4.172
  931W        W 2228   4.675   2.752   1.870
  932W        W 2229   4.158   4.184   3.586
  933W        W 2230   2.269   6.175   1.319
  934W        W 2231   4.490   2.764   5.433
  935W        W 2232   1.819   5.613   0.564
  936W        W 2233   0.003   4.041   0.383
  937W        W 2234   2.220   4.757   6.135
  938W        W 2235   6.730   3.597   1.028
  939W        W 2236   7.406   6.131   6.248
  940W        W 2237   4.591   4.252   3.345
  941W        W 2238   1.180   6.272   4.569
  942W        W 2239   3.501   0.218   0.224
  943W        W 2240   3.316   5.053   5.264
  944W        W 2241   7.113   1.939   1.921
  945W        W 2242   7.415   4.354   2.392
  946W        W 2243   2.056   1.011   2.319
  947W        W 2244   6.751   7.606   6.813
  948W        W 2245   3.062   5.826   2.898
  949W        W 2246   4.602   6.999   0.081
  950W        W 2247   4.303   6.390   2.982
  951W        W 2248   0.941   6.014   0.318
  952W        W 2249   6.389   7.684   2.789
  953W        W 2250   0.843   4.714   3.298
  954W        W 2251   1.900   0.251   4.031
  955W        W 2252   5.108   6.126   4.576
  956W        W 2253   5.444   2.473   2.541
  957W        W 2254   5.713   1.745   1.961
  958W        W 2255   2.799   3.654   3.432
  959W        W 2256   3.530   7.966   7.123
  960W        W 2257   5.449   3.091   3.041
  961W        W 2258   6.268   4.709   2.901
  962W        W 2259   7.776   5.874   7.021
  963W        W 2260   4.843   4.339   0.739
  964W        W 2261   6.335   5.614   1.370
  965W        W 2262   0.195   1.231   0.158
  966W        W 2263   0.354   7.844   6.757
  967W        W 2264   7.146   0.763   5.058
  968W        W 2265   2.580   4.977   6.336
  969W        W 2266   4.949   4.583   3.597
  970W        W 2267   1.693   3.645   5.545
  971W        W 2268   2.044   4.616   6.907
  972W        W 2269   4.830   4.724   1.087
  973W        W 2270   3.505   2.500   0.225
  974W        W 2271   5.833   5.746   1.482
  975W        W 2272   7.628   3.244   1.543
  976W        W 2273   5.518   2.090   3.465
  977W        W 2274   2.215   3.016   6.558
  978W        W 2275   6.436   0.366   3.845
  979W        W 2276   7.726   2.999   7.922
  980W        W 2277   6.981   4.385   5.350
  981W        W 2278   1.697   7.012   2.333
  982W        W 2279   2.470   5.045   6.798
  983W        W 2280   2.699   4.150   4.825
  984W        W 2281   0.296   1.363   4.181
  985W        W 2282   0.897   3.350   1.464
  986W        W 2283   3.471   5.128   2.408
  987W        W 2284   3.724   1.509   3.200
  988W        W 2285   1.622   3.374   2.600
  989W        W 2286   7.034   5.787   3.834
  990W        W 2287   3.004   0.352   0.136
  991W        W 2288   5.241   3.473   4.395
  992W        W 2289   4.364   0.457   7.512
  993W        W 2290   0.452   4.205   7.641
  994W        W 2291   5.168   0.548   2.339
  995W        W 2292   1.032   4.046   6.922
  996W        W 2293   4.476   0.410   1.428
  997W        W 2294   2.368   6.709   7.733
  998W        W 2295   5.465   5.845   0.242
  999W        W 2296   3.378   4.676   0.238
 1000W        W 2297   3.341   5.214   1.690
 1001W        W 2298   5.398   2.125   6.481
 1002W        W 2299   4.562   1.263   0.791
 1003W        W 2300   1.465   6.290   7.881
 1004W        W 2301   2.826   6.337   7.059
 1005W        W 2302   4.891   6.400   5.183
 1006W        W 2303   0.909   2.548   5.958
 1007W        W 2304   2.804   7.722   6.385
 1008W        W 2305   1.403   1.589   1.921
 1009W        W 2306   1.342   1.666   2.598
 1010W        W 2307   6.060   1.427   2.206
 1011W        W 2308   5.338   1.827   0.456
 1012W        W 2309   1.834   0.195   2.522
 1013W        W 2310   4.969   4.629   2.548
 1014W        W 2311   0.777   3.832   3.508
 1015W        W 2312   5.149   6.670   6.909
 1016W        W 2313   6.085   1.512   6.300
 1017W        W 2314   7.465   2.577   3.265
 1018W        W 2315   1.638   2.544   6.727
 1019W        W 2316   0.385   4.034   4.797
 1020W        W 2317   6.067   3.769   3.175
 1021W        W 2318   0.482   1.379   5.674
 1022W        W 2319   0.242   4.853   3.310
 1023W        W 2320   3.665   3.092   5.783
 1024W        W 2321   5.309   6.489   1.442
 1025W        W 2322   3.938   1.744   6.996
 1026W        W 2323   0.524   3.550   3.870
 1027W        W 2324   0.786   3.743   2.892
 1028W        W 2325   4.999   6.683   5.574
 1029W        W 2326   1.681   4.256   4.748
 1030W        W 2327   0.938   1.418   6.009
 1031W        W 2328   5.440   4.797   3.544
 1032W        W 2329   4.939   7.991   5.248
 1033W        W 2330   1.130   4.601   0.022
 1034W        W 2331   4.667   0.450   5.005
 1035W        W 2332   0.559   1.736   5.308
 1036W        W 2333   6.608   3.807   1.743
 1037W        W 2334   1.248   6.889   3.215
 1038W        W 2335   1.303   5.078   1.776
 1039W        W 2336   0.217   5.175   1.127
 1040W        W 2337   2.460   5.193   5.213
 1041W        W 2338   3.241   7.779   2.356
 1042W        W 2339   6.462   0.782   4.379
 1043W        W 2340   5.998   1.762   4.130
 1044W        W 2341   1.353   3.223   6.577
 1045W        W 2342   2.632   3.609   0.299
 1046W        W 2343   6.247   1.885   2.814
 1047W        W 2344   0.016   0.103   4.674
 1048W        W 2345   6.061   1.630   1.049
 1049W        W 2346   4.359   1.204   1.277
 1050W        W 2347   7.505   0.577   6.032
 1051W        W 2348   2.201   1.277   5.682
 1052W        W 2349   7.471   0.804   3.433
 1053W        W 2350   0.007   7.473   7.485
 1054W        W 2351   6.980   3.724   5.751
 1055W        W 2352   7.267   0.286   3.432
 1056W        W 2353   0.667   1.209   3.347
 1057W        W 2354   6.712   4.690   7.639
 1058W        W 2355   1.447   1.939   2.961
 1059W        W 2356   3.201   5.503   0.365
 1060W        W 2357   3.084   1.142   1.986
 1061W        W 2358   5.634   6.317   5.254
 1062W        W 2359   0.985   5.964   3.333
 1063W        W 2360   6.265   4.431   5.015
 1064W        W 2361   6.228   7.698   3.540
 1065W        W 2362   3.817   0.298   5.391
 1066W        W 2363   2.476   0.913   7.524
 1067W        W 2364   6.121   3.427   7.186
 1068W        W 2365   4.966   3.303   3.037
 1069W        W 2366   7.453   2.320   5.309
 1070W        W 2367   7.640   7.552   7.172
 1071W        W 2368   2.261   0.455   0.278
 1072W        W 2369   3.541   0.154   2.723
 1073W        W 2370   3.276   2.798   1.962
 1074W        W 2371   2.097   5.571   7.236
 1075W        W 2372   3.938   4.747   0.571
 1076W        W 2373   3.676   6.414   3.541
 1077W        W 2374   0.629   1.559   1.554
 1078W        W 2375   6.580   2.519   7.484
 1079W        W 2376   3.073   6.453   2.278
 1080W        W 2377   1.672   7.002   0.107
 1081W        W 2378   4.136   5.789   0.177
 1082W        W 2379   3.323   6.757   7.436
 1083W        W 2380   7.066   7.436   4.566
 1084W        W 2381   7.386   2.328   6.003
 1085W        W 2382   4.897   3.388   6.199
 1086W        W 2383   3.152   1.405   6.034
 1087W        W 2384   4.086   7.244   4.600
 1088W        W 2385   4.753   6.501   4.682
 1089W        W 2386   7.787   1.222   1.973
 1090W        W 2387   6.495   5.484   0.012
 1091W        W 2388   0.973   2.798   0.005
 1092W        W 2389   2.719   3.061   6.067
 1093W        W 2390   0.311   2.970   6.510
 1094W        W 2391   4.207   2.560   7.067
 1095W        W 2392   3.163   6.994   1.347
 1096W        W 2393   3.157   2.765   4.711
 1097W        W 2394   7.860   4.910   5.399
 1098W        W 2395   7.415   4.168   0.704
 1099W        W 2396   6.256   1.267   4.194
 1100W        W 2397   3.739   5.514   1.710
 1101W        W 2398   3.727   2.511   2.244
 1102W        W 2399   4.923   1.444   5.399
 1103W        W 2400   2.640   2.948   4.716
 1104W        W 2401   2.232   2.089   3.938
 1105W        W 2402   7.015   5.663   5.231
 1106W        W 2403   3.494   5.968   3.092
 1107W        W 2404   5.105   5.474   6.177
 1108W        W 2405   7.078   6.166   5.351
 1109W        W 2406   6.122   1.669   0.272
 1110W        W 2407   0.562   6.696   4.224
 1111W        W 2408   7.264   2.924   4.477
 1112W        W 2409   4.618   4.853   5.774
 1113W        W 2410   5.446   0.715   3.238
 1114W        W 2411   1.736   7.025   0.934
 1115W        W 2412   3.494   1.117   5.266
 1116W        W 2413   6.668   2.283   5.422
 1117W        W 2414   3.832   3.164   3.826
 1118W        W 2415   5.900   4.294   2.348
 1119W        W 2416   0.744   0.647   3.507
 1120W        W 2417   1.061   2.166   6.440
 1121W        W 2418   3.500   4.993   3.530
 1122W        W 2419   1.456   6.088   6.783
 1123W        W 2420   0.721   5.777   4.064
 1124W        W 2421   2.224   4.029   1.619
 1125W        W 2422   6.049   4.942   5.816
 1126W        W 2423   6.821   2.684   4.519
 1127W        W 2424   7.591   1.988   3.057
 1128W        W 2425   0.176   4.104   4.233
 1129W        W 2426   4.662   3.662   5.389
 1130W        W 2427   2.564   0.491   4.434
 1131W        W 2428   0.834   4.074   5.082
 1132W        W 2429   0.487   1.568   6.136
 1133W        W 2430   1.649   2.257   0.717
 1134W        W 2431   3.816   3.033   2.810
 1135W        W 2432   7.100   3.206   5.790
 1136W        W 2433   7.677   5.164   1.867
 1137W        W 2434   0.980   6.467   3.292
 1138W        W 2435   4.399   2.224   1.137
 1139W        W 2436   1.079   0.800   4.328
 1140W        W 2437   6.991   5.747   0.853
 1141W        W 2438   3.953   0.469   0.623
 1142W        W 2439   7.739   5.277   1.321
 1143W        W 2440   5.560   2.026   4.787
 1144W        W 2441   5.736   6.995   6.161
 1145W        W 2442   4.503   2.133   5.680
 1146W        W 2443   0.339   7.377   1.948
 1147W        W 2444   0.921   6.228   2.177
 1148W        W 2445   1.817   7.156   7.400
 1149W        W 2446   1.042   6.311   7.583
 1150W        W 2447   1.148   4.542   6.912
 1151W        W 2448   6.086   5.191   1.483
 1152W        W 2449   4.388   0.124   0.498
 1153W        W 2450   6.891   5.013   7.314
 1154W        W 2451   4.201   3.828   2.580
 1155W        W 2452   6.918   4.515   6.020
 1156W        W 2453   6.321   3.066   5.216
 1157W        W 2454   7.212   6.156   2.290
 1158W        W 2455   4.420   4.149   5.220
 1159W        W 2456   6.741   2.980   6.628
 1160W        W 2457   2.993   6.432   0.665
 1161W        W 2458   5.777   5.716   7.713
 1162W        W 2459   1.153   2.669   0.473
 1163W        W 2460   6.464   2.630   6.372
 1164W        W 2461   1.910   7.212   0.497
 1165W        W 2462   4.139   7.036   1.675
 1166W        W 2463   3.777   5.041   3.983
 1167W        W 2464   6.230   5.550   1.949
 1168W        W 2465   1.666   2.182   2.557
 1169W        W 2466   2.492   6.273   2.169
 1170W        W 2467   2.663   7.517   0.802
 1171W        W 2468   3.737   2.660   6.034
 1172W        W 2469   6.420   2.814   4.139
 1173W        W 2470   2.025   3.961   7.673
 1174W        W 2471   2.661   4.839   5.864
 1175W        W 2472   3.781   0.367   1.725
 1176W        W 2473   4.343   4.692   5.384
 1177W        W 2474   7.508   0.166   2.258
 1178W        W 2475   5.340   6.059   2.541
 1179W        W 2476   4.344   3.901   3.061
 1180W        W 2477   1.347   6.122   2.686
 1181W        W 2478   2.514   3.844   0.708
 1182W        W 2479   6.884   0.578   7.417
 1183W        W 2480   2.943   0.783   2.344
 1184W        W 2481   4.425   1.954   7.083
 1185W        W 2482   3.688   2.512   3.309
 1186W        W 2483   0.232   6.549   0.771
 1187W        W 2484   4.496   2.126   2.183
 1188W        W 2485   4.290   5.304   1.647
 1189W        W 2486   5.587   2.360   1.548
 1190W        W 2487   3.663   0.579   3.519
 1191W        W 2488   3.412   2.518   6.484
 1192W        W 2489   1.800   6.958   4.553
 1193W        W 2490   6.351   1.034   2.079
 1194W        W 2491   4.602   2.448   0.681
 1195W        W 2492   0.176   3.893   3.716
 1196W        W 2493   2.342   0.988   4.635
 1197W        W 2494   6.373   3.359   3.339
 1198W        W 2495   4.649   1.885   4.478
 1199W        W 2496   6.861   1.993   2.479
 1200W        W 2497   3.810   5.574   0.861
 1201W        W 2498   5.481   0.448   7.577
 1202W        W 2499   0.850   0.708   2.890
 1203W        W 2500   1.607   3.627   7.575
 1204W        W 2501   4.993   6.619   1.777
 1205W        W 2502   0.447   3.259   0.140
 1206W        W 2503   3.927   1.219   1.525
 1207W        W 2504   1.936   7.458   1.801
 1208W        W 2505   2.946   3.010   7.081
 1209W        W 2506   0.403   0.677   2.529
 1210W        W 2507   3.607   4.399   5.713
 1211W        W 2508   6.651   4.122   5.875
 1212W        W 2509   3.650   1.181   5.817
 1213W        W 2510   6.839   0.103   0.252
 1214W        W 2511   3.229   2.330   2.286
 1215W        W 2512   1.304   2.260   7.257
 1216W        W 2513   0.355   6.905   2.535
 1217W        W 2514   6.057   2.553   2.331
 1218W        W 2515   6.922   4.117   1.982
 1219W        W 2516   1.998   4.181   3.126
 1220W        W 2517   3.362   7.821   7.687
 1221W        W 2518   3.696   3.430   6.748
 1222W        W 2519   6.034   3.740   0.950
 1223W        W 2520   3.728   0.913   6.345
 1224W        W 2521   3.315   4.899   2.817
 1225W        W 2522   5.217   4.981   5.881
 1226W        W 2523   5.230   5.305   1.880
 1227W        W 2524   3.032   1.755   2.519
 1228W        W 2525   2.294   6.490   1.731
 1229W        W 2526   5.000   2.260   2.551
 1230W        W 2527   4.997   6.915   4.465
 1231W        W 2528   3.596   2.501   0.732
 1232W        W 2529   0.936   4.322   6.089
 1233W        W 2530   0.833   7.622   6.778
 1234W        W 2531   4.062   5.318   4.870
 1235W        W 2532   2.040   0.260   5.024
 1236W        W 2533   3.889   6.723   7.542
 1237W        W 2534   1.014   0.208   4.188
 1238W        W 2535   5.894   7.172   3.957
 1239W        W 2536   1.124   3.015   2.735
 1240W        W 2537   0.300   4.453   6.463
 1241W        W 2538   3.539   4.136   4.956
 1242W        W 2539   1.384   3.156   1.782
 1243W        W 2540   3.578   1.992   7.916
 1244W        W 2541   0.285   5.537   3.614
 1245W        W 2542   0.325   0.641   1.620
 1246W        W 2543   4.457   7.728   5.363
 1247W        W 2544   1.853   7.749   2.223
 1248W        W 2545   5.461   4.541   2.447
 1249W        W 2546   1.550   0.760   5.615
 1250W        W 2547   0.517   7.623   7.632
 1251W        W 2548   3.356   7.307   0.143
 1252W        W 2549   5.951   7.552   2.617
 1253W        W 2550   4.165   0.077   3.431
 1254W        W 2551   7.025   4.993   6.147
 1255W        W 2552   2.686   1.844   5.857
 1256W        W 2553   1.355   0.207   2.311
 1257W        W 2554   6.591   2.008   1.994
 1258W        W 2555   2.815   2.610   7.300
 1259W        W 2556   6.963   0.777   3.486
 1260W        W 2557   6.482   3.851   2.716
 1261W        W 2558   3.985   7.425   0.898
 1262W        W 2559   5.171   7.381   2.880
 1263W        W 2560   0.061   1.487   5.192
 1264W        W 2561   4.686   0.030   7.445
 1265W        W 2562   2.811   2.637   5.717
 1266W        W 2563   5.301   0.539   0.683
 1267W        W 2564   3.173   1.837   7.517
 1268W        W 2565   0.429   5.027   5.229
 1269W        W 2566   7.601   7.132   5.439
 1270W        W 2567   1.914   4.956   0.181
 1271W        W 2568   2.414   3.338   3.550
 1272W        W 2569   5.515   3.154   0.293
 1273W        W 2570   7.072   0.464   5.924
 1274W        W 2571   6.069   3.507   6.110
 1275W        W 2572   7.738   1.006   6.227
 1276W        W 2573   4.952   5.119   0.358
 1277W        W 2574   3.882   7.454   1.443
 1278W        W 2575   7.136   7.857   5.127
 1279W        W 2576   4.823   2.843   3.268
 1280W        W 2577   1.508   2.550   1.237
 1281W        W 2578   3.943   0.452   6.544
 1282W        W 2579   7.671   4.616   1.903
 1283W        W 2580   4.984   0.197   5.627
 1284W        W 2581   1.266   3.859   5.422
 1285W        W 2582   2.694   1.833   6.786
 1286W        W 2583   1.776   3.968   1.882
 1287W        W 2584   1.433   6.839   5.911
 1288W        W 2585   3.873   2.918   0.695
 1289W        W 2586   3.132   5.419   7.093
 1290W        W 2587   5.136   5.654   2.250
 1291W        W 2588   2.224   1.472   2.370
 1292W        W 2589   2.176   6.495   3.556
 1293W        W 2590   3.637   6.393   4.251
 1294W        W 2591   4.946   7.098   3.972
 1295W        W 2592   0.188   7.660   5.751
 1296W        W 2593   6.312   6.895   0.582
 1297W        W 2594   6.740   4.741   2.733
 1298W        W 2595   5.952   6.594   1.539
 1299W        W 2596   1.833   4.741   7.357
 1300W        W 2597   2.922   5.931   5.199
 1301W        W 2598   1.617   6.714   2.744
 1302W        W 2599   5.128   4.140   2.311
 1303W        W 2600   3.305   5.931   0.083
 1304W        W 2601   4.899   1.989   5.242
 1305W        W 2602   6.758   2.202   4.719
 1306W        W 2603   5.590   6.386   6.761
 1307W        W 2604   1.693   7.448   6.320
 1308W        W 2605   0.718   1.108   1.178
 1309W        W 2606   5.579   3.161   7.796
 1310W        W 2607   4.543   5.476   0.451
 1311W        W 2608   1.112   3.647   0.840
 1312W        W 2609   4.908   4.412   5.364
 1313W        W 2610   7.587   5.823   0.334
 1314W        W 2611   7.290   1.129   3.799
 1315W        W 2612   3.714   2.040   1.465
 1316W        W 2613   7.237   5.494   2.855
 1317W        W 2614   1.778   6.030   1.271
 1318W        W 2615   7.591   2.620   1.561
 1319W        W 2616   5.633   5.043   6.633
 1320W        W 2617   7.688   3.141   4.289
 1321W        W 2618   7.548   7.130   7.445
 1322W        W 2619   4.078   6.811   1.228
 1323W        W 2620   7.313   4.817   7.484
 1324W        W 2621   7.388   6.661   7.393
 1325W        W 2622   0.066   4.405   4.621
 1326W        W 2623   0.529   5.970   3.629
 1327W        W 2624   1.082   5.121   3.580
 1328W        W 2625   0.164   6.131   6.648
 1329W        W 2626   1.351   0.689   0.338
 1330W        W 2627   0.785   4.239   2.560
 1331W        W 2628   0.559   3.992   6.820
 1332W        W 2629   1.324   3.160   2.276
 1333W        W 2630   4.534   1.931   3.184
 1334W        W 2631   1.318   0.987   7.823
 1335W        W 2632   5.336   6.642   0.219
 1336W        W 2633   5.751   4.630   2.029
 1337W        W 2634   5.462   7.445   5.905
 1338W        W 2635   3.398   6.171   5.759
 1339W        W 2636   5.394   7.332   3.924
 1340W        W 2637   1.932   6.657   7.394
 1341W        W 2638   5.947   3.208   1.205
 1342W        W 2639   3.313   3.006   6.108
 1343W        W 2640   5.677   0.823   1.485
 1344W        W 2641   0.181   0.313   7.472
 1345W        W 2642   7.788   3.530   1.096
 1346W        W 2643   0.514   7.411   3.602
 1347W        W 2644   1.272   7.091   6.285
 1348W        W 2645   6.063   2.971   2.700
 1349W        W 2646   6.957   3.770   7.577
 1350W        W 2647   7.183   0.281   0.651
 1351W        W 2648   7.941   6.739   7.309
 1352W        W 2649   5.642   1.206   5.954
 1353W        W 2650   0.590   4.329   2.097
 1354W        W 2651   1.725   4.283   6.180
 1355W        W 2652   4.089   2.308   3.037
 1356W        W 2653   3.429   0.065   4.510
 1357W        W 2654   6.949   0.172   3.822
 1358W        W 2655   1.038   3.576   7.433
 1359W        W 2656   2.652   5.645   1.216
 1360W        W 2657   6.126   6.337   3.747
 1361W        W 2658   6.615   3.402   5.975
 1362W        W 2659   1.999   3.934   4.185
 1363W        W 2660   0.093   1.727   6.402
 1364W        W 2661   3.957   7.669   5.072
 1365W        W 2662   1.754   2.981   6.474
 1366W        W 2663   5.235   1.803   2.756
 1367W        W 2664   3.094   5.313   2.624
 1368W        W 2665   7.130   4.711   6.527
 1369W        W 2666   5.257   2.207   6.949
 1370W        W 2667   1.963   6.059   5.524
 1371W        W 2668   0.659   7.191   4.113
 1372W        W 2669   6.040   4.928   4.276
 1373W        W 2670   7.192   2.343   1.678
 1374W        W 2671   0.855   0.673   0.025
 1375W        W 2672   1.077   4.228   4.581
 1376W        W 2673   5.578   0.261   5.410
 1377W        W 2674   2.568   4.130   3.144
 1378W        W 2675   6.233   7.846   2.339
 1379W        W 2676   3.342   0.838   6.064
 1380W        W 2677   5.847   3.300   0.705
 1381W        W 2678   1.049   2.854   5.481
 1382W        W 2679   3.880   1.009   3.305
 1383W        W 2680   3.349   0.740   2.617
 1384W        W 2681   3.414   0.026   3.754
 1385W        W 2682   5.279   3.992   3.233
 1386W        W 2683   1.204   1.112   5.672
 1387W        W 2684   4.636   3.366   0.664
 1388W        W 2685   5.867   1.910   6.439
 1389W        W 2686   6.972   4.184   3.358
 1390W        W 2687   4.545   0.159   7.952
 1391W        W 2688   2.785   0.380   0.604
 1392W        W 2689   7.453   7.326   6.059
 1393W        W 2690   7.622   7.395   6.668
 1394W        W 2691   5.881   6.534   6.110
 1395W        W 2692   4.989   5.452   0.756
 1396W        W 2693   4.415   1.467   7.041
 1397W        W 2694   7.622   2.966   7.407
 1398W        W 2695   0.696   0.010   4.939
 1399W        W 2696   5.107   6.191   5.599
 1400W        W 2697   3.922   7.605   7.838
 1401W        W 2698   6.542   2.731   2.102
 1402W        W 2699   5.764   6.814   0.460
 1403W        W 2700   0.607   5.107   5.786
 1404W        W 2701   4.776   6.357   6.772
 1405W        W 2702   5.685   5.510   5.672
 1406W        W 2703   6.651   7.169   3.600
 1407W        W 2704   7.032   1.800   7.258
 1408W        W 2705   7.466   0.457   7.432
 1409W        W 2706   1.287   5.443   7.476
 1410W        W 2707   2.976   2.602   0.038
 1411W        W 2708   6.839   7.828   2.078
 1412W        W 2709   5.096   0.342   3.456
 1413W        W 2710   7.414   3.625   6.082
 1414W        W 2711   7.444   6.258   6.994
 1415W        W 2712   0.981   1.980   6.889
 1416W        W 2713   4.291   7.260   5.202
 1417W        W 2714   1.832   1.599   6.802
 1418W        W 2715   2.094   1.166   2.820
 1419W        W 2716   1.978   2.923   3.614
 1420W        W 2717   2.184   7.558   7.565
 1421W        W 2718   5.632   6.273   0.555
 1422W        W 2719   7.772   5.007   2.868
 1423W        W 2720   6.322   5.740   3.160
 1424W        W 2721   2.543   3.552   1.080
 1425W        W 2722   1.489   3.457   3.598
 1426W        W 2723   4.464   7.476   4.318
 1427W        W 2724   7.819   2.425   0.823
 1428W        W 2725   1.791   1.401   2.178
 1429W        W 2726   7.616   1.182   4.268
 1430W        W 2727   4.021   1.985   0.088
 1431W        W 2728   3.777   5.363   5.362
 1432W        W 2729   0.808   4.842   0.512
 1433W        W 2730   0.557   0.767   0.837
 1434W        W 2731   7.396   2.144   2.285
 1435W        W 2732   2.719   4.465   6.255
 1436W        W 2733   3.286   1.367   7.418
 1437W        W 2734   0.073   7.311   2.727
 1438W        W 2735   6.108   0.476   2.685
 1439W        W 2736   5.061   3.422   7.793
 1440W        W 2737   5.746   0.169   2.180
 1441W        W 2738   0.618   1.067   6.389
 1442W        W 2739   6.417   4.384   7.015
 1443W        W 2740   3.487   2.871   3.580
 1444W        W 2741   5.510   5.288   6.214
 1445W        W 2742   0.645   6.649   2.890
 1446W        W 2743   0.532   6.204   3.129
 1447W        W 2744   3.502   4.934   4.472
 1448W        W 2745   3.043   0.357   7.017
 1449W        W 2746   6.702   1.587   1.012
 1450W        W 2747   7.654   7.606   4.340
 1451W        W 2748   4.595   0.268   3.168
 1452W        W 2749   2.018   2.511   2.460
 1453W        W 2750   6.307   0.071   1.782
 1454W        W 2751   2.529   5.449   6.412
 1455W        W 2752   7.373   3.802   3.851
 1456W        W 2753   3.151   2.240   0.425
 1457W        W 2754   7.254   2.918   6.584
 1458W        W 2755   2.553   1.263   1.173
 1459W        W 2756   0.615   4.878   2.424
 1460W        W 2757   0.527   1.313   7.570
 1461W        W 2758   7.116   5.438   7.039
 1462W        W 2759   1.996   0.039   3.378
 1463W        W 2760   7.485   2.874   6.173
 1464W        W 2761   7.608   5.585   6.318
 1465W        W 2762   6.753   7.597   4.938
 1466W        W 2763   3.436   4.257   2.072
 1467W        W 2764   7.335   1.510   1.843
 1468W        W 2765   0.624   7.690   4.069
 1469W        W 2766   3.193   1.760   0.687
 1470W        W 2767   3.407   4.553   0.697
 1471W        W 2768   4.816   2.432   7.080
 1472W        W 2769   5.085   2.746   4.577
 1473W        W 2770   6.311   1.793   6.945
 1474W        W 2771   4.427   7.403   7.943
 1475W        W 2772   7.248   0.490   4.654
 1476W        W 2773   1.578   0.561   1.513
 1477W        W 2774   0.163   4.900   4.767
 1478W        W 2775   5.962   7.482   3.126
 1479W        W 2776   1.789   5.157   2.912
 1480W        W 2777   7.661   4.491   5.009
 1481W        W 2778   6.670   2.988   3.101
 1482W        W 2779   3.016   3.384   3.020
 1483W        W 2780   5.513   6.056   4.835
 1484W        W 2781   5.463   1.985   5.925
 1485W        W 2782   0.329   1.328   6.700
 1486W        W 2783   1.992   2.594   6.242
 1487W        W 2784   0.177   2.228   6.485
 1488W        W 2785   4.955   7.737   2.542
 1489W        W 2786   4.453   4.650   6.316
 1490W        W 2787   3.162   2.630   5.248
 1491W        W 2788   5.435   6.421   5.905
 1492W        W 2789   6.318   4.527   1.141
 1493W        W 2790   2.795   3.487   5.861
 1494W        W 2791   6.639   4.827   0.731
 1495W        W 2792   1.803   5.346   5.932
 1496W        W 2793   1.989   5.266   3.367
 1497W        W 2794   6.397   3.710   5.643
 1498W        W 2795   7.056   0.768   6.982
 1499W        W 2796   5.358   4.297   3.635
 1500W        W 2797   7.061   0.525   2.126
 1501W        W 2798   0.576   4.406   7.164
 1502W        W 2799   1.734   0.332   7.420
 1503W        W 2800   2.660   5.098   7.919
 1504W        W 2801   5.772   2.401   0.733
 1505W        W 2802   4.438   5.155   5.178
 1506W        W 2803   2.671   1.960   6.346
 1507W        W 2804   1.765   6.611   2.013
 1508W        W 2805   2.391   3.822   4.472
 1509W        W 2806   5.814   5.830   2.740
 1510W        W 2807   0.692   1.024   3.893
 1511W        W 2808   4.076   4.360   3.129
 1512W        W 2809   3.205   0.791   3.265
 1513W        W 2810   5.526   5.410   6.960
 1514W        W 2811   1.990   2.427   0.388
 1515W        W 2812   2.868   5.553   4.098
 1516W        W 2813   0.980   5.608   5.702
 1517W        W 2814   5.858   2.253   5.700
 1518W        W 2815   0.274   4.709   0.782
 1519W        W 2816   2.491   4.948   4.695
 1520W        W 2817   2.467   0.548   1.911
 1521W        W 2818   2.116   7.090   7.854
 1522W        W 2819   2.000   6.580   3.082
 1523W        W 2820   1.486   6.327   1.615
 1524W        W 2821   3.216   3.324   6.769
 1525W        W 2822   2.016   0.649   2.763
 1526W        W 2823   2.458   2.247   5.464
 1527W        W 2824   0.776   7.026   3.448
 1528W        W 2825   6.257   0.049   7.804
 1529W        W 2826   2.647   5.507   6.980
 1530W        W 2827   5.881   5.785   2.260
 1531W        W 2828   2.657   2.848   4.251
 1532W        W 2829   3.424   6.925   3.613
 1533W        W 2830   2.790   1.854   5.222
 1534W        W 2831   0.483   0.297   6.555
 1535W        W 2832   1.912   1.926   2.155
 1536W        W 2833   3.943   1.522   7.879
 1537W        W 2834   4.429   4.711   7.357
 1538W        W 2835   1.396   6.712   7.553
 1539W        W 2836   4.099   3.364   5.994
 1540W        W 2837   3.853   4.818   0.070
 1541W        W 2838   5.960   1.198   4.977
 1542W        W 2839   5.033   5.651   0.213
 1543W        W 2840   5.166   3.297   2.554
 1544W        W 2841   1.111   2.459   6.875
 1545W        W 2842   0.302   0.807   6.721
 1546W        W 2843   4.177   4.628   3.946
 1547W        W 2844   7.073   4.583   3.715
 1548W        W 2845   7.179   3.464   7.307
 1549W        W 2846   1.875   5.670   2.863
 1550W        W 2847   1.249   4.190   0.839
 1551W        W 2848   4.097   2.644   2.627
 1552W        W 2849   4.638   6.353   5.644
 1553W        W 2850   3.580   3.200   1.064
 1554W        W 2851   2.526   3.282   7.359
 1555W        W 2852   3.843   0.785   5.595
 1556W        W 2853   1.962   0.517   3.593
 1557W        W 2854   2.521   4.185   0.344
 1558W        W 2855   3.114   6.868   0.871
 1559W        W 2856   1.413   2.944   7.000
 1560W        W 2857   5.574   2.616   4.746
 1561W        W 2858   3.474   0.799   4.361
 1562W        W 2859   2.069   7.374   4.854
 1563W        W 2860   0.448   0.638   6.210
 1564W        W 2861   1.566   1.004   6.819
 1565W        W 2862   2.584   5.970   4.201
 1566W        W 2863   0.985   4.245   5.589
 1567W        W 2864   1.110   1.259   3.675
 1568W        W 2865   4.119   2.395   5.632
 1569W        W 2866   5.874   0.817   3.559
 1570W        W 2867   6.299   6.001   5.856
 1571W        W 2868   1.074   0.291   3.689
 1572W        W 2869   6.143   0.541   2.088
 1573W        W 2870   5.531   6.685   1.928
 1574W        W 2871   2.042   2.409   3.534
 1575W        W 2872   4.395   2.448   3.909
 1576W        W 2873   2.566   1.447   6.183
 1577W        W 2874   4.419   0.971   7.169
 1578W        W 2875   0.638   0.525   7.210
 1579W        W 2876   2.848   5.053   4.266
 1580W        W 2877   5.473   6.391   4.374
 1581W        W 2878   7.386   3.899   0.274
 1582W        W 2879   3.674   5.952   4.055
 1583W        W 2880   2.223   1.625   6.504
 1584W        W 2881   6.641   4.362   0.719
 1585W        W 2882   3.288   3.889   5.962
 1586W        W 2883   7.706   2.435   2.812
 1587W        W 2884   0.890   2.120   4.923
 1588W        W 2885   1.811   5.290   6.790
 1589W        W 2886   3.406   2.905   0.505
 1590W        W 2887   7.425   4.879   2.271
 1591W        W 2888   5.567   7.750   2.973
 1592W        W 2889   4.133   5.179   7.571
 1593W        W 2890   2.783   3.019   2.816
 1594W        W 2891   1.930   7.493   5.355
 1595W        W 2892   1.720   5.963   4.000
 1596W        W 2893   6.384   7.461   3.976
 1597W        W 2894   4.255   5.130   6.119
 1598W        W 2895   6.893   2.676   4.015
 1599W        W 2896   7.152   4.350   2.928
 1600W        W 2897   7.917   1.335   0.567
 1601W        W 2898   2.199   1.995   6.868
 1602W        W 2899   7.769   0.007   0.609
 1603W        W 2900   3.719   0.018   3.235
 1604W        W 2901   4.320   7.270   0.451
 1605W        W 2902   5.418   6.375   7.265
 1606W        W 2903   4.813   4.765   3.028
 1607W        W 2904   2.863   5.175   5.543
 1608W        W 2905   0.153   2.682   0.156
 1609W        W 2906   2.775   4.943   2.837
 1610W        W 2907   6.124   0.950   6.361
 1611W        W 2908   7.318   7.049   6.474
 1612W        W 2909   0.326   0.362   5.032
 1613W        W 2910   4.045   6.518   2.556
 1614W        W 2911   3.916   2.169   2.571
 1615W        W 2912   0.726   0.133   1.450
 1616W        W 2913   4.917   4.577   6.107
 1617W        W 2914   5.090   2.202   1.444
 1618W        W 2915   0.942   0.045   7.397
 1619W        W 2916   1.862   7.796   7.231
 1620W        W 2917   0.938   2.908   6.753
 1621W        W 2918   3.070   3.944   5.142
 1622W        W 2919   4.512   0.027   1.725
 1623W        W 2920   0.766   6.490   4.750
 1624W        W 2921   6.610   2.008   7.665
 1625W        W 2922   5.943   7.490   2.121
 1626W        W 2923   3.714   6.869   0.295
 1627W        W 2924   4.883   0.308   0.446
 1628W        W 2925   2.308   3.787   7.320
 1629W        W 2926   2.179   4.201   5.958
 1630W        W 2927   4.270   4.141   6.190
 1631W        W 2928   1.573   0.384   4.582
 1632W        W 2929   1.293   4.122   1.702
 1633W        W 2930   1.215   3.061   5.914
 1634W        W 2931   1.364   0.711   1.909
 1635W        W 2932   0.454   0.381   2.065
 1636W        W 2933   2.170   4.913   3.719
 1637W        W 2934   5.205   3.388   0.588
 1638W        W 2935   4.047   6.348   3.892
 1639W        W 2936   4.296   3.258   4.496
 1640W        W 2937   3.318   1.371   1.550
 1641W        W 2938   2.112   6.221   4.236
 1642W        W 2939   6.383   1.554   7.511
 1643W        W 2940   4.329   4.651   0.978
 1644W        W 2941   0.715   6.990   4.646
 1645W        W 2942   4.883   4.704   7.157
 1646W        W 2943   6.255   2.020   4.540
 1647W        W 2944   4.487   5.047   1.235
 1648W        W 2945   1.522   4.102   4.276
 1649W        W 2946   0.988   3.514   5.086
 1650W        W 2947   6.074   4.177   2.809
 1651W        W 2948   4.080   4.237   6.683
 1652W        W 2949   6.735   0.824   0.649
 1653W        W 2950   4.665   1.165   0.297
 1654W        W 2951   0.621   6.282   2.585
 1655W        W 2952   4.505   1.092   6.669
 1656W        W 2953   0.290   6.139   6.042
 1657W        W 2954   7.285   7.605   3.871
 1658W        W 2955   6.005   7.506   5.724
 1659W        W 2956   3.982   4.589   2.126
 1660W        W 2957   5.631   0.344   2.737
 1661W        W 2958   5.580   7.423   4.392
 1662W        W 2959   5.927   2.244   2.715
 1663W        W 2960   5.787   1.949   5.289
 1664W        W 2961   7.447   6.249   5.807
 1665W        W 2962   7.803   0.754   4.114
 1666W        W 2963   4.717   4.169   0.270
 1667W        W 2964   0.612   7.069   7.615
 1668W        W 2965   4.551   5.998   4.611
 1669W        W 2966   1.355   7.960   7.427
 1670W        W 2967   5.969   2.937   7.246
 1671W        W 2968   2.370   6.774   1.299
 1672W        W 2969   7.390   6.099   1.076
 1673W        W 2970   3.657   1.297   6.978
 1674W        W 2971   4.447   4.458   4.385
 1675W        W 2972   6.983   6.902   2.143
 1676W        W 2973   3.032   2.300   0.911
 1677W        W 2974   3.076   6.488   3.479
 1678W        W 2975   3.918   2.826   0.213
 1679W        W 2976   3.806   6.906   2.221
 1680W        W 2977   7.464   4.337   1.413
 1681W        W 2978   1.634   1.361   7.526
 1682W        W 2979   6.781   5.229   7.787
 1683W        W 2980   0.824   4.641   7.502
 1684W        W 2981   3.539   2.936   6.742
 1685W        W 2982   0.809   6.249   6.416
 1686W        W 2983   1.505   1.445   5.910
 1687W        W 2984   2.334   4.612   3.045
 1688W        W 2985   6.421   3.439   1.378
 1689W        W 2986   2.523   3.767   3.990
 1690W        W 2987   5.718   6.797   7.143
 1691W        W 2988   7.699   6.299   0.657
 1692W        W 2989   5.039   2.898   5.793
 1693W        W 2990   6.321   3.321   0.828
 1694W        W 2991   5.976   1.385   1.665
 1695W        W 2992   2.449   1.452   6.961
 1696W        W 2993   7.434   7.999   7.757
 1697W        W 2994   6.953   3.751   4.740
 1698W        W 2995   3.286   7.186   5.262
 1699W        W 2996   1.714   7.015   3.110
 1700W        W 2997   4.507   1.992   3.671
 1701W        W 2998   4.557   0.474   6.112
 1702W        W 2999   2.732   1.795   4.676
 1703W        W 3000   6.096   7.198   1.694
 1704W        W 3001   3.501   5.123   1.203
 1705W        W 3002   0.218   3.341   0.548
 1706W        W 3003   3.839   5.018   1.902
 1707W        W 3004   6.737   1.683   5.535
 1708W        W 3005   2.236   1.807   3.504
 1709W        W 3006   3.303   4.917   6.917
 1710W        W 3007   4.609   3.604   7.491
 1711W        W 3008   0.145   7.014   7.565
 1712W        W 3009   6.803   1.985   6.028
 1713W        W 3010   5.795   7.642   5.286
 1714W        W 3011   4.283   4.278   0.635
 1715W        W 3012   3.646   5.627   4.519
 1716W        W 3013   0.041   3.567   4.054
 1717W        W 3014   7.584   1.423   3.453
 1718W        W 3015   5.750   0.903   2.899
 1719W        W 3016   6.958   3.903   5.267
 1720W        W 3017   4.620   4.195   1.225
 1721W        W 3018   0.701   2.712   7.109
 1722W        W 3019   4.886   3.186   5.348
 1723W        W 3020   3.319   6.605   1.799
 1724W        W 3021   0.096   0.840   5.805
 1725W        W 3022   3.081   6.574   6.422
 1726W        W 3023   0.478   5.827   0.451
 1727W        W 3024   1.130   4.680   3.813
 1728W        W 3025   5.034   5.779   4.941
 1729W        W 3026   7.385   6.463   0.108
 1730W        W 3027   0.993   4.627   2.170
 1731W        W 3028   1.239   3.952   2.832
 1732W        W 3029   4.080   1.861   5.925
 1733W        W 3030   6.219   3.480   1.869
 1734W        W 3031   0.039   1.014   4.501
 1735W        W 3032   1.488   3.470   6.015
 1736W        W 3033   5.521   7.260   0.821
 1737W        W 3034   6.354   2.104   5.081
 1738W        W 3035   1.212   4.380   1.303
 1739W        W 3036   6.844   4.263   6.637
 1740W        W 3037   0.263   5.949   2.745
 1741W        W 3038   2.051   0.698   1.134
 1742W        W 3039   5.958   1.234   0.640
 1743W        W 3040   3.764   1.533   2.223
 1744W        W 3041   7.117   4.665   0.600
 1745W        W 3042   7.461   4.369   3.499
 1746W        W 3043   5.084   2.527   6.522
 1747W        W 3044   2.245   1.882   6.034
 1748W        W 3045   3.278   0.957   6.817
 1749W        W 3046   7.207   7.464   0.255
 1750W        W 3047   5.989   2.246   0.315
 1751W        W 3048   7.474   4.896   3.837
 1752W        W 3049   0.162   5.335   3.125
 1753W        W 3050   0.639   0.516   3.984
 1754W        W 3051   0.563   6.360   6.866
 1755W        W 3052   4.232   7.719   1.172
 1756W        W 3053   0.231   0.396   6.987
 1757W        W 3054   1.862   5.139   2.330
 1758W        W 3055   5.484   5.382   1.431
 1759W        W 3056   4.147   1.825   2.859
 1760W        W 3057   2.121   5.639   6.736
 1761W        W 3058   0.173   6.455   2.522
 1762W        W 3059   5.135   4.834   0.711
 1763W        W 3060   3.278   2.746   0.980
 1764W        W 3061   0.910   2.543   2.820
 1765W        W 3062   5.340   0.979   6.624
 1766W        W 3063   6.699   5.577   6.068
 1767W        W 3064   1.514   6.414   4.897
 1768W        W 3065   3.148   2.064   6.582
 1769W        W 3066   7.590   4.065   6.029
 1770W        W 3067   7.778   2.212   3.494
 1771W        W 3068   2.633   6.592   6.671
 1772W        W 3069   7.014   0.758   5.575
 1773W        W 3070   3.049   3.194   0.397
 1774W        W 3071   7.161   2.308   6.846
 1775W        W 3072   5.751   4.509   2.904
 1776W        W 3073   1.516   6.114   0.282
 1777W        W 3074   2.008   2.416   2.989
 1778W        W 3075   6.247   5.436   5.905
 1779W        W 3076   0.508   3.635   5.074
 1780W        W 3077   5.797   3.576   0.022
 1781W        W 3078   6.622   0.755   5.958
 1782W        W 3079   2.197   0.056   1.894
 1783W        W 3080   2.090   3.210   2.385
 1784W        W 3081   3.004   6.184   6.099
 1785W        W 3082   1.817   4.992   1.822
 1786W        W 3083   4.865   2.099   6.601
 1787W        W 3084   6.064   3.808   1.584
 1788W        W 3085   5.454   0.482   0.221
 1789W        W 3086   3.931   4.829   6.378
 1790W        W 3087   2.298   0.101   5.777
 1791W        W 3088   3.206   0.200   7.426
 1792W        W 3089   3.348   5.392   4.159
 1793W        W 3090   6.829   1.081   2.116
 1794W        W 3091   3.873   3.403   4.280
 1795W        W 3092   0.250   5.444   2.615
 1796W        W 3093   2.897   5.189   1.945
 1797W        W 3094   6.924   5.663   7.516
 1798W        W 3095   0.999   1.575   1.240
 1799W        W 3096   2.109   6.761   4.220
 1800W        W 3097   1.855   0.008   4.644
 1801W        W 3098   1.808   0.282   6.695
 1802W        W 3099   4.581   3.576   0.203
 1803W        W 3100   1.275   3.983   5.953
 1804W        W 3101   7.166   7.340   7.073
 1805W        W 3102   4.955   7.670   5.810
 1806W        W 3103   6.068   6.120   1.895
 1807W        W 3104   3.845   4.224   0.864
 1808W        W 3105   4.206   1.064   4.467
 1809W        W 3106   3.553   7.069   3.098
 1810W        W 3107   0.902   5.098   5.379
 1811W        W 3108   0.218   5.814   7.459
 1812W        W 3109   3.240   5.366   7.827
 1813W        W 3110   6.828   2.538   2.613
 1814W        W 3111   7.382   1.826   7.628
 1815W        W 3112   7.585   2.101   4.553
 1816W        W 3113   1.988   3.482   3.790
 1817W        W 3114   6.788   4.567   1.136
 1818W        W 3115   6.986   1.091   7.327
 1819W        W 3116   6.021   2.005   3.662
 1820W        W 3117   3.232   3.637   1.184
 1821W        W 3118   7.208   6.114   2.773
 1822W        W 3119   2.721   6.087   2.596
 1823W        W 3120   3.246   3.966   4.592
 1824W        W 3121   4.933   3.135   0.230
 1825W        W 3122   5.919   0.474   3.160
 1826W        W 3123   2.226   5.983   3.793
 1827W        W 3124   6.694   0.054   2.632
 1828W        W 3125   4.480   4.619   1.488
 1829W        W 3126   7.046   1.351   2.748
 1830W        W 3127   3.568   5.426   3.695
 1831W        W 3128   2.377   6.324   2.837
 1832W        W 3129   2.756   1.468   7.538
 1833W        W 3130   2.851   1.354   4.767
 1834W        W 3131   1.365   5.575   2.878
 1835W        W 3132   5.550   0.934   0.903
 1836W        W 3133   2.230   4.743   2.211
 1837W        W 3134   1.994   3.242   5.618
 1838W        W 3135   7.504   0.718   2.275
 1839W        W 3136   4.484   4.262   1.770
 1840W        W 3137   1.609   5.640   1.037
 1841W        W 3138   6.337   6.748   3.548
 1842W        W 3139   2.731   3.539   2.157
 1843W        W 3140   4.734   1.451   7.433
 1844W        W 3141   5.458   7.250   7.553
 1845W        W 3142   5.494   0.598   4.215
 1846W        W 3143   4.716   6.765   3.543
 1847W        W 3144   1.042   4.241   4.080
 1848W        W 3145   7.744   3.892   3.563
 1849W        W 3146   0.779   0.999   0.453
 1850W        W 3147   5.931   6.818   6.623
 1851W        W 3148   1.308   3.509   7.007
 1852W        W 3149   1.600   0.992   1.243
 1853W        W 3150   1.279   7.200   7.412
 1854W        W 3151   1.781   2.625   1.639
 1855W        W 3152   2.386   7.083   7.388
 1856W        W 3153   3.090   7.656   1.864
 1857W        W 3154   1.947   4.569   5.697
 1858W        W 3155   4.389   6.038   6.102
 1859W        W 3156   3.083   3.534   2.502
 1860W        W 3157   1.068   6.386   6.983
 1861W        W 3158   5.890   4.705   6.356
 1862W        W 3159   1.229   0.181   0.542
 1863W        W 3160   1.354   1.459   6.841
 1864W        W 3161   1.082   0.725   7.076
 1865W        W 3162   0.538   5.265   0.141
 1866W        W 3163   6.805   6.437   2.152
 1867W        W 3164   7.790   7.073   6.995
 1868W        W 3165   4.247   6.437   7.319
 1869W        W 3166   7.244   0.813   4.263
 1870W        W 3167   2.739   3.922   6.057
 1871W        W 3168   0.376   5.804   6.950
 1872W        W 3169   1.110   3.821   1.276
 1873W        W 3170   1.421   1.628   3.957
 1874W        W 3171   0.104   6.058   0.834
 1875W        W 3172   5.507   5.082   5.500
 1876W        W 3173   3.947   3.026   4.696
 1877W        W 3174   6.769   6.851   5.832
 1878W        W 3175   6.058   0.478   4.867
 1879W        W 3176   4.480   1.822   4.931
 1880W        W 3177   4.725   0.042   3.589
 1881W        W 3178   1.804   0.351   5.506
 1882W        W 3179   1.537   7.087   1.849
 1883W        W 3180   6.088   4.661   1.547
 1884W        W 3181   5.708   1.903   0.037
 1885W        W 3182   5.630   6.787   1.121
 1886W        W 3183   4.373   0.793   0.964
 1887W        W 3184   4.092   1.777   3.399
 1888W        W 3185   5.886   0.027   5.063
 1889W        W 3186   0.372   2.585   6.091
 1890W        W 3187   0.018   7.813   7.121
 1891W        W 3188   7.154   1.682   3.069
 1892W        W 3189   1.773   5.616   6.378
 1893W        W 3190   2.013   0.075   6.290
 1894W        W 3191   7.173   7.619   3.381
 1895W        W 3192   7.083   1.412   3.457
 1896W        W 3193   2.583   0.053   0.162
 1897W        W 3194   2.198   3.979   4.941
 1898W        W 3195   7.267   2.039   4.888
 1899W        W 3196   7.338   6.605   1.920
 1900W        W 3197   1.641   7.805   5.591
 1901W        W 3198   5.860   1.826   3.177
 1902W        W 3199   1.119   1.322   1.653
 1903W        W 3200   6.616   3.000   2.510
 1904W        W 3201   1.498   6.300   7.258
 1905W        W 3202   7.880   4.695   2.447
 1906W        W 3203   1.089   0.951   6.147
 1907W        W 3204   7.814   6.561   6.840
 1908W        W 3205   4.960   4.899   5.403
 1909W        W 3206   3.399   1.465   7.873
 1910W        W 3207   4.192   6.397   4.677
 1911W        W 3208   6.565   5.266   1.696
 1912W        W 3209   2.230   5.745   7.698
 1913W        W 3210   1.069   1.086   6.610
 1914W        W 3211   2.942   1.370   0.471
 1915W        W 3212   7.490   3.705   5.539
 1916W        W 3213   7.928   7.158   1.884
 1917W        W 3214   3.392   6.196   5.279
 1918W        W 3215   2.781   0.949   5.994
 1919W        W 3216   6.084   7.280   4.401
 1920W        W 3217   6.257   2.546   7.049
 1921W        W 3218   4.510   0.641   0.463
 1922W        W 3219   3.231   4.870   3.951
 1923W        W 3220   2.786   2.278   2.540
 1924W        W 3221   3.359   7.246   2.620
 1925W        W 3222   1.914   4.505   0.423
 1926W        W 3223   6.547   1.250   2.513
 1927W        W 3224   3.953   4.801   4.660
 1928W        W 3225   3.942   5.517   7.113
 1929W        W 3226   0.980   5.934   6.746
 1930W        W 3227   2.474   4.554   3.569
 1931W        W 3228   4.230   3.791   5.564
 1932W        W 3229   4.058   2.877   5.157
 1933W        W 3230   0.227   0.752   3.516
 1934W        W 3231   0.232   0.842   4.000
 1935W        W 3232   1.815   1.539   3.692
 1936W        W 3233   2.143   5.431   0.147
 1937W        W 3234   6.948   5.099   0.420
 1938W        W 3235   4.020   3.477   7.739
 1939W        W 3236   2.827   0.854   6.900
 1940W        W 3237   4.912   7.167   6.819
 1941W        W 3238   0.162   1.208   6.194
 1942W        W 3239   4.949   4.012   3.649
 1943W        W 3240   5.167   2.924   7.698
 1944W        W 3241   6.875   2.443   7.941
 1945W        W 3242   2.224   7.372   2.325
 1946W        W 3243   1.354   6.380   3.694
 1947W        W 3244   6.595   7.303   4.501
 1948W        W 3245   2.483   2.831   2.485
 1949W        W 3246   7.006   7.441   1.834
 1950W        W 3247   2.497   5.128   0.319
 1951W        W 3248   5.769   2.356   6.202
 1952W        W 3249   4.160   1.781   2.363
 1953W        W 3250   6.145   3.224   7.673
 1954W        W 3251   7.013   5.180   2.507
 1955W        W 3252   2.883   2.815   3.299
 1956W        W 3253   4.945   3.942   1.648
 1957W        W 3254   6.393   6.526   5.815
 1958W        W 3255   2.329   1.970   4.965
 1959W        W 3256   1.610   4.718   1.373
 1960W        W 3257   1.421   4.692   0.411
 1961W        W 3258   3.969   2.968   3.260
 1962W        W 3259   0.714   2.734   4.520
 1963W        W 3260   0.744   3.989   0.786
 1964W        W 3261   0.895   3.346   2.040
 1965W        W 3262   6.964   1.535   2.299
 1966W        W 3263   0.810   3.740   4.701
 1967W        W 3264   4.173   0.688   4.726
 1968W        W 3265   6.142   3.025   2.139
 1969W        W 3266   0.879   4.754   4.268
 1970W        W 3267   2.978   5.242   6.632
 1971W        W 3268   6.887   0.308   4.326
 1972W        W 3269   7.839   1.862   0.694
 1973W        W 3270   6.764   7.893   6.301
 1974W        W 3271   2.869   5.454   3.157
 1975W        W 3272   6.847   7.061   6.775
 1976W        W 3273   6.100   5.880   4.204
 1977W        W 3274   5.428   4.338   6.311
 1978W        W 3275   0.696   2.593   5.201
 1979W        W 3276   4.785   7.683   3.005
 1980W        W 3277   3.485   1.510   4.750
 1981W        W 3278   6.052   5.610   7.202
 1982W        W 3279   5.622   2.695   7.608
 1983W        W 3280   5.561   2.458   2.033
 1984W        W 3281   0.203   4.385   2.512
 1985W        W 3282   3.345   1.759   6.980
 1986W        W 3283   7.265   3.383   4.131
 1987W        W 3284   6.744   5.944   5.570
 1988W        W 3285   3.267   7.841   2.957
 1989W        W 3286   5.191   4.403   4.922
 1990W        W 3287   4.155   3.388   0.822
 1991W        W 3288   1.011   4.268   3.553
 1992W        W 3289   5.443   6.904   6.586
 1993W        W 3290   5.150   4.302   1.191
 1994W        W 3291   2.904   0.136   3.613
 1995W        W 3292   7.346   5.819   4.287
 1996W        W 3293   0.950   7.602   7.897
 1997W        W 3294   2.175   4.301   4.528
 1998W        W 3295   4.747   2.482   2.916
 1999W        W 3296   7.028   7.809   1.031
 2000W        W 3297   1.715   3.751   2.946
 2001W        W 3298   1.969   0.800   7.492
 2002W        W 3299   3.614   5.681   6.101
 2003W        W 3300   6.375   0.152   3.029
 2004W        W 3301   6.007   2.726   6.585
 2005W        W 3302   5.124   7.519   0.590
 2006W        W 3303   0.631   2.561   6.552
 2007W        W 3304   6.940   7.160   3.148
 2008W        W 3305   0.904   0.203   6.894
 2009W        W 3306   6.977   2.464   1.216
 2010W        W 3307   4.050   4.918   1.443
 2011W        W 3308   1.003   7.335   3.802
 2012W        W 3309   7.680   2.976   3.495
 2013W        W 3310   7.041   7.097   7.540
 2014W        W 3311   0.184   4.545   7.415
 2015W        W 3312   3.354   2.013   1.790
 2016W        W 3313   2.768   0.619   3.835
 2017W        W 3314   2.150   0.807   5.092
 2018W        W 3315   5.449   2.810   6.303
 2019W        W 3316   0.665   0.563   4.547
 2020W        W 3317   1.060   6.492   1.365
 2021W        W 3318   5.555   7.621   7.290
 2022W        W 3319   3.691   5.193   2.841
 2023W        W 3320   6.516   0.704   5.207
 2024W        W 3321   7.109   0.781   0.947
 2025W        W 3322   7.342   4.455   4.127
 2026W        W 3323   0.872   0.546   1.706
 2027W        W 3324   3.516   5.082   0.621
 2028W        W 3325   5.756   2.698   0.226
 2029W        W 3326   1.899   2.264   4.275
 2030W        W 3327   6.558   6.847   0.143
 2031W        W 3328   0.443   7.415   7.157
 2032W        W 3329   1.247   2.453   5.273
 2033W        W 3330   7.451   7.665   4.820
 2034W        W 3331   1.708   0.644   5.006
 2035W        W 3332   2.120   6.678   2.532
 2036W        W 3333   5.907   4.243   7.130
 2037W        W 3334   6.799   7.672   5.475
 2038W        W 3335   4.331   5.525   0.889
 2039W        W 3336   2.074   1.051   0.724
 2040W        W 3337   7.492   0.128   5.132
 2041W        W 3338   5.073   7.462   4.394
 2042W        W 3339   6.704   5.388   4.885
 2043W        W 3340   6.397   7.263   3.116
 2044W        W 3341   5.363   1.553   5.650
 2045W        W 3342   5.110   0.027   7.707
 2046W        W 3343   3.310   5.472   0.875
 2047W        W 3344   5.725   3.801   4.419
 2048W        W 3345   3.717   5.742   5.093
 2049W        W 3346   4.792   2.132   4.068
 2050W        W 3347   7.123   6.255   4.071
 2051W        W 3348   7.317   7.223   4.236
 2052W        W 3349   1.492   0.154   5.789
 2053W        W 3350   0.327   2.872   7.453
 2054W        W 3351   2.571   4.005   2.386
 2055W        W 3352   1.078   7.080   2.087
 2056W        W 3353   0.613   0.002   0.178
 2057W        W 3354   6.944   3.436   0.304
 2058W        W 3355   6.871   3.910   6.229
 2059W        W 3356   7.835   2.327   2.343
 2060W        W 3357   2.330   4.349   0.738
 2061W        W 3358   4.846   5.551   4.475
 2062W        W 3359   5.207   3.082   6.648
 2063W        W 3360   3.010   2.529   6.167
 2064W        W 3361   1.520   3.293   3.084
 2065W        W 3362   5.039   4.198   2.823
 2066W        W 3363   2.634   6.972   4.249
 2067W        W 3364   7.788   2.970   6.560
 2068W        W 3365   4.629   6.282   1.933
 2069W        W 3366   4.204   0.818   0.112
 2070W        W 3367   6.707   0.517   4.802
 2071W        W 3368   4.422   0.979   3.282
 2072W        W 3369   4.621   4.225   5.770
 2073W        W 3370   1.565   6.430   4.329
 2074W        W 3371   0.408   0.875   3.054
 2075W        W 3372   6.818   5.697   1.894
 2076W        W 3373   5.080   6.180   0.174
 2077W        W 3374   1.728   0.347   1.988
 2078W        W 3375   4.916   3.628   2.192
 2079W        W 3376   4.574   7.926   4.492
 2080W        W 3377   6.431   2.981   4.706
 2081W        W 3378   4.453   1.194   1.762
 2082W        W 3379   3.291   6.397   4.633
 2083W        W 3380   6.050   6.236   2.412
 2084W        W 3381   3.663   7.116   1.159
 2085W        W 3382   1.314   4.224   6.464
 2086W        W 3383   5.599   6.659   2.415
 2087W        W 3384   7.719   2.776   5.212
 2088W        W 3385   6.565   1.234   0.507
 2089W        W 3386   6.858   0.999   4.632
 2090W        W 3387   6.632   4.112   7.472
 2091W        W 3388   4.568   6.102   7.586
 2092W        W 3389   6.335   5.825   4.635
 2093W        W 3390   4.731   1.141   2.898
 2094W        W 3391   3.605   6.627   0.859
 2095W        W 3392   5.144   0.091   0.880
 2096W        W 3393   6.440   5.876   3.756
 2097W        W 3394   7.455   4.821   1.507
 2098W        W 3395   7.360   2.670   0.803
 2099W        W 3396   0.305   2.608   4.757
 2100W        W 3397   3.042   6.882   7.897
 2101W        W 3398   4.836   0.914   2.460
 2102W        W 3399   7.461   0.564   5.467
 2103W        W 3400   1.196   2.100   3.814
 2104W        W 3401   2.814   2.144   1.301
 2105W        W 3402   7.560   2.897   0.353
 2106W        W 3403   3.531   2.557   3.964
 2107W        W 3404   4.115   3.401   3.527
 2108W        W 3405   2.665   1.281   2.603
 2109W        W 3406   6.451   7.251   5.908
 2110W        W 3407   4.643   2.299   1.643
 2111W        W 3408   5.734   6.775   3.586
 2112W        W 3409   1.245   1.892   7.627
 2113W        W 3410   6.143   5.036   1.992
 2114W        W 3411   1.369   0.912   4.711
 2115W        W 3412   0.136   7.306   4.068
 2116W        W 3413   7.712   2.916   1.059
 2117W        W 3414   6.502   4.965   6.060
 2118W        W 3415   1.917   1.758   4.161
 2119W        W 3416   4.830   5.991   4.145
 2120W        W 3417   6.005   5.173   6.258
 2121W        W 3418   2.016   3.438   6.221
 2122W        W 3419   6.293   5.731   2.574
 2123W        W 3420   1.946   6.233   2.305
 2124W        W 3421   6.335   2.501   4.544
 2125W        W 3422   7.197   7.111   5.707
 2126W        W 3423   3.094   5.030   7.484
 2127W        W 3424   1.483   2.462   2.911
 2128W        W 3425   7.127   5.552   6.250
 2129W        W 3426   2.259   4.979   2.707
 2130W        W 3427   1.927   5.742   3.512
 2131W        W 3428   6.951   5.347   4.430
 2132W        W 3429   4.809   7.388   6.248
 2133W        W 3430   1.508   0.918   0.706
 2134W        W 3431   2.419   6.193   7.567
 2135W        W 3432   1.471   1.984   5.645
 2136W        W 3433   6.896   5.240   6.613
 2137W        W 3434   0.248   6.419   4.520
 2138W        W 3435   5.987   6.706   4.450
 2139W        W 3436   4.150   6.563   3.433
 2140W        W 3437   1.709   3.452   2.051
 2141W        W 3438   5.853   5.479   3.467
 2142W        W 3439   5.027   6.128   3.666
 2143W        W 3440   1.676   0.131   1.333
 2144W        W 3441   6.952   7.493   2.838
 2145W        W 3442   6.462   3.965   1.228
 2146W        W 3443   1.542   2.613   4.929
 2147W        W 3444   6.478   7.410   2.230
 2148W        W 3445   2.854   6.739   5.971
 2149W        W 3446   4.171   7.735   0.390
 2150W        W 3447   6.433   1.727   2.370
 2151W        W 3448   3.951   3.773   3.846
 2152W        W 3449   4.144   1.086   0.563
 2153W        W 3450   5.976   4.273   1.778
 2154W        W 3451   4.231   3.468   6.724
 2155W        W 3452   7.483   5.725   2.533
 2156W        W 3453   0.953   1.296   4.738
 2157W        W 3454   4.059   6.338   7.776
 2158W        W 3455   6.695   3.304   5.453
 2159W        W 3456   5.764   7.248   1.329
 2160W        W 3457   4.039   0.591   4.170
 2161W        W 3458   2.926   2.115   7.123
 2162W        W 3459   2.477   6.826   2.954
 2163W        W 3460   5.555   3.660   3.024
 2164W        W 3461   2.376   4.450   5.033
 2165W        W 3462   2.247   4.159   6.946
 2166W        W 3463   5.390   3.030   1.382
 2167W        W 3464   6.106   2.278   6.644
 2168W        W 3465   2.685   5.626   4.663
 2169W        W 3466   7.443   7.093   3.193
 2170W        W 3467   5.739   3.897   4.912
 2171W        W 3468   1.410   4.859   2.240
 2172W        W 3469   4.997   3.088   4.195
 2173W        W 3470   1.099   2.567   4.093
 2174W        W 3471   1.967   3.293   3.298
 2175W        W 3472   1.714   3.865   5.086
 2176W        W 3473   6.123   4.246   6.524
 2177W        W 3474   5.251   3.082   4.908
 2178W        W 3475   7.133   3.427   5.196
 2179W        W 3476   3.815   5.509   3.243
 2180W        W 3477   1.780   2.873   2.126
 2181W        W 3478   0.292   7.669   4.888
 2182W        W 3479   7.219   4.737   3.237
 2183W        W 3480   7.135   7.534   6.400
 2184W        W 3481   4.574   3.697   5.924
 2185W        W 3482   2.107   2.008   0.655
 2186W        W 3483   5.652   6.236   1.100
 2187W        W 3484   3.255   7.550   6.398
 2188W        W 3485   3.218   6.107   1.907
 2189W        W 3486   1.544   0.199   5.038
 2190W        W 3487   1.450   0.460   4.087
 2191W        W 3488   2.841   6.672   1.246
 2192W        W 3489   1.278   3.882   4.863
 2193W        W 3490   6.966   4.513   7.226
 2194W        W 3491   5.764   7.175   5.399
 2195W        W 3492   4.330   1.230   4.911
 2196W        W 3493   3.341   5.430   3.134
 2197W        W 3494   1.903   2.693   0.976
 2198W        W 3495   5.820   0.175   0.058
 2199W        W 3496   0.478   6.759   5.044
 2200W        W 3497   5.564   5.823   5.305
 2201W        W 3498   4.043   5.097   0.883
 2202W        W 3499   5.586   1.293   3.450
 2203W        W 3500   0.690   5.426   4.971
 2204W        W 3501   0.700   3.652   7.780
 2205W        W 3502   3.209   1.862   4.540
 2206W        W 3503   1.488   5.189   6.388
 2207W        W 3504   1.044   1.307   4.171
 2208W        W 3505   3.809   7.745   2.842
 2209W        W 3506   6.523   5.783   7.263
 2210W        W 3507   7.441   5.738   4.790
 2211W        W 3508   4.783   6.740   2.770
 2212W        W 3509   3.101   5.711   1.584
 2213W        W 3510   5.246   2.146   3.864
 2214W        W 3511   6.967   2.028   1.001
 2215W        W 3512   4.198   2.082   1.728
 2216W        W 3513   2.406   5.881   1.700
 2217W        W 3514   4.833   2.440   3.589
 2218W        W 3515   2.208   0.347   1.461
 2219W        W 3516   5.854   4.893   3.268
 2220W        W 3517   2.459   0.814   2.590
 2221W        W 3518   7.678   3.352   3.801
 2222W        W 3519   3.599   4.221   3.202
 2223W        W 3520   4.835   6.475   6.102
 2224W        W 3521   2.079   7.093   2.774
 2225W        W 3522   0.333   0.955   2.018
 2226W        W 3523   6.668   1.202   5.647
 2227W        W 3524   2.251   4.376   7.539
 2228W        W 3525   4.640   3.769   4.008
 2229W        W 3526   1.031   7.581   2.617
 2230W        W 3527   1.216   3.720   3.284
 2231W        W 3528   6.590   5.412   2.234
 2232W        W 3529   6.677   7.587   0.570
 2233W        W 3530   4.944   2.586   4.064
 2234W        W 3531   5.051   0.339   4.028
 2235W        W 3532   3.642   3.473   2.554
 2236W        W 3533   1.544   5.166   0.676
 2237W        W 3534   0.378   6.253   4.988
 2238W        W 3535   7.775   6.169   2.697
 2239W        W 3536   6.416   1.033   4.864
 2240W        W 3537   4.657   2.781   7.385
 2241W        W 3538   2.523   4.450   1.529
 2242W        W 3539   7.815   3.313   6.166
 2243W        W 3540   6.936   1.818   5.127
 2244W        W 3541   6.375   5.073   3.197
 2245W        W 3542   0.129   3.465   3.483
 2246W        W 3543   7.636   6.668   2.387
 2247W        W 3544   6.046   2.979   1.639
 2248W        W 3545   2.842   3.989   1.144
 2249W        W 3546   1.386   7.552   7.050
 2250W        W 3547   3.419   3.750   6.563
 2251W        W 3548   2.886   6.345   3.040
 2252W        W 3549   2.489   5.551   3.482
 2253W        W 3550   6.005   6.215   4.596
 2254W        W 3551   7.345   7.023   2.639
 2255W        W 3552   4.665   0.310   2.633
 2256W        W 3553   0.728   5.926   4.751
 2257W        W 3554   7.587   2.137   1.851
 2258W        W 3555   1.426   4.453   7.332
 2259W        W 3556   1.582   1.811   6.262
 2260W        W 3557   7.780   3.028   2.000
 2261W        W 3558   5.125   4.773   4.623
 2262W        W 3559   6.228   5.542   5.016
 2263W        W 3560   6.794   5.913   0.044
 2264W        W 3561   3.796   7.309   6.534
 2265W        W 3562   3.983   2.134   7.231
 2266W        W 3563   4.167   2.570   2.006
 2267W        W 3564   7.516   3.142   2.407
 2268W        W 3565   6.396   3.310   4.315
 2269W        W 3566   4.122   0.905   3.715
 2270W        W 3567   6.085   6.156   1.349
 2271W        W 3568   5.216   2.380   5.041
 2272W        W 3569   3.280   5.508   2.105
 2273W        W 3570   2.648   4.766   7.577
 2274W        W 3571   1.845   4.741   3.263
 2275W        W 3572   7.701   6.138   2.143
 2276W        W 3573   5.475   5.899   7.382
 2277W        W 3574   1.669   4.319   6.824
 2278W        W 3575   3.161   6.835   0.380
 2279W        W 3576   4.757   3.484   4.378
 2280W        W 3577   2.654   5.614   5.578
 2281W        W 3578   0.277   2.676   4.247
 2282W        W 3579   0.895   0.387   2.244
 2283W        W 3580   2.128   1.851   0.100
 2284W        W 3581   1.473   0.910   7.377
 2285W        W 3582   5.721   2.465   5.275
 2286W        W 3583   7.246   2.710   7.094
 2287W        W 3584   2.497   2.480   7.671
 2288W        W 3585   0.382   2.418   2.772
 2289W        W 3586   6.748   0.224   3.354
 2290W        W 3587   7.149   4.594   1.848
 2291W        W 3588   7.420   6.188   3.252
 2292W        W 3589   2.365   4.870   1.741
 2293W        W 3590   2.344   5.361   3.023
 2294W        W 3591   0.714   0.625   1.251
 2295W        W 3592   6.093   2.588   7.528
 2296W        W 3593   0.735   2.176   3.923
 2297W        W 3594   2.472   4.007   7.906
 2298W        W 3595   0.124   0.319   5.971
 2299W        W 3596   3.785   5.977   1.942
 2300W        W 3597   6.416   1.162   0.953
 2301W        W 3598   4.770   0.497   1.006
 2302W        W 3599   6.089   6.457   7.037
 2303W        W 3600   4.948   4.407   4.291
 2304W        W 3601   6.944   0.792   2.590
 2305W        W 3602   0.982   5.379   3.104
 2306W        W 3603   1.874   6.790   5.058
 2307W        W 3604   7.388   7.790   0.654
 2308W        W 3605   5.809   3.002   6.001
 2309W        W 3606   1.058   6.603   5.652
 2310W        W 3607   5.939   0.068   0.571
 2311W        W 3608   5.789   1.072   3.986
 2312W        W 3609   0.399   6.776   7.109
 2313W        W 3610   2.339   1.238   5.069
 2314W        W 3611   1.515   5.928   3.133
 2315W        W 3612   0.562   5.079   2.993
 2316W        W 3613   0.048   2.331   1.604
 2317W        W 3614   5.876   3.898   5.409
 2318W        W 3615   6.328   3.468   2.389
 2319W        W 3616   7.739   4.039   4.773
 2320W        W 3617   7.054   3.440   6.324
 2321W        W 3618   0.449   6.542   6.282
 2322W        W 3619   3.318   0.495   0.563
 2323W        W 3620   4.597   5.111   0.743
 2324W        W 3621   1.876   1.648   5.698
 2325W        W 3622   6.973   7.115   6.179
 2326W        W 3623   0.422   0.924   4.851
 2327W        W 3624   3.531   5.749   1.316
 2328W        W 3625   5.920   3.782   2.504
 2329W        W 3626   4.475   6.827   5.437
 2330W        W 3627   1.503   1.777   7.208
 2331W        W 3628   6.714   0.337   0.696
 2332W        W 3629   3.046   5.043   3.254
 2333W        W 3630   0.611   1.831   6.543
 2334W        W 3631   6.870   7.807   7.817
 2335W        W 3632   1.387   1.882   1.261
 2336W        W 3633   0.260   2.685   6.922
 2337W        W 3634   1.723   7.499   2.662
 2338W        W 3635   1.849   1.647   2.752
 2339W        W 3636   4.471   3.153   5.026
 2340W        W 3637   2.558   7.414   1.910
 2341W        W 3638   0.006   4.725   1.240
 2342W        W 3639   5.573   7.132   2.179
 2343W        W 3640   7.490   5.391   5.845
 2344W        W 3641   0.345   7.358   4.519
 2345W        W 3642   6.805   5.598   0.408
 2346W        W 3643   7.418   0.932   6.603
 2347W        W 3644   6.976   0.385   5.312
 2348W        W 3645   7.733   5.711   0.834
 2349W        W 3646   2.811   0.996   3.451
 2350W        W 3647   1.947   3.795   2.443
 2351W        W 3648   4.083   5.937   0.694
 2352W        W 3649   5.164   0.648   5.404
 2353W        W 3650   1.649   6.723   0.546
 2354W        W 3651   3.604   2.147   6.891
 2355W        W 3652   1.018   7.369   0.304
 2356W        W 3653   0.497   7.269   5.866
 2357W        W 3654   4.168   1.601   1.884
 2358W        W 3655   1.307   0.519   7.608
 2359W        W 3656   3.632   4.877   5.559
 2360W        W 3657   1.813   1.007   5.984
 2361W        W 3658   7.448   2.473   3.769
 2362W        W 3659   5.906   1.622   7.385
 2363W        W 3660   3.027   5.059   0.292
 2364W        W 3661   5.255   0.737   2.779
 2365W        W 3662   1.573   6.450   1.006
 2366W        W 3663   5.969   5.424   0.189
 2367W        W 3664   0.337   0.353   1.144
 2368W        W 3665   0.361   1.744   7.038
 2369W        W 3666   5.133   6.178   1.843
 2370W        W 3667   5.234   1.069   5.671
 2371W        W 3668   4.977   0.911   0.710
 2372W        W 3669   6.980   4.215   0.385
 2373W        W 3670   6.265   4.616   0.497
 2374W        W 3671   0.693   2.947   6.170
 2375W        W 3672   0.556   1.485   3.769
 2376W        W 3673   5.365   5.581   1.020
 2377W        W 3674   5.735   7.279   4.881
 2378W        W 3675   0.565   5.424   2.066
 2379W        W 3676   5.180   2.272   4.394
 2380W        W 3677   3.671   0.622   3.031
 2381W        W 3678   2.970   3.943   0.026
 2382W        W 3679   1.914   5.865   0.026
 2383W        W 3680   7.019   2.481   5.075
 2384W        W 3681   1.423   7.909   2.635
 2385W        W 3682   5.348   3.596   5.300
 2386W        W 3683   2.742   3.623   7.659
 2387W        W 3684   2.320   0.459   7.355
 2388W        W 3685   2.188   4.181   5.445
 2389W        W 3686   4.994   5.218   1.131
 2390W        W 3687   2.248   3.767   3.332
 2391W        W 3688   5.732   7.474   3.623
 2392W        W 3689   7.351   5.460   0.594
 2393W        W 3690   6.792   3.656   4.180
 2394W        W 3691   4.207   2.737   1.044
 2395W        W 3692   3.397   7.189   6.759
 2396W        W 3693   4.589   4.633   0.505
 2397W        W 3694   7.105   2.168   5.639
 2398W        W 3695   6.606   0.809   6.475
 2399W        W 3696   3.922   1.346   3.645
 2400W        W 3697   3.593   1.170   1.919
 2401W        W 3698   2.097   5.184   6.334
 2402W        W 3699   5.229   7.800   4.676
 2403W        W 3700   3.425   4.146   7.431
 2404W        W 3701   4.772   6.931   2.233
 2405W        W 3702   4.193   1.589   4.560
 2406W        W 3703   6.422   1.648   5.957
 2407W        W 3704   5.718   2.274   3.918
 2408W        W 3705   1.393   2.884   0.928
 2409W        W 3706   3.058   2.220   2.966
 2410W        W 3707   0.782   4.666   5.703
 2411W        W 3708   5.589   7.199   3.195
 2412W        W 3709   4.046   4.061   1.727
 2413W        W 3710   3.890   2.319   1.078
 2414W        W 3711   5.753   5.306   4.319
 2415W        W 3712   0.509   3.820   0.246
 2416W        W 3713   0.234   1.455   4.714
 2417W        W 3714   5.437   7.804   5.547
 2418W        W 3715   7.499   0.765   1.802
 2419W        W 3716   2.671   1.025   0.761
 2420W        W 3717   1.379   4.820   5.301
 2421W        W 3718   0.570   7.420   0.092
 2422W        W 3719   7.607   1.091   5.214
 2423W        W 3720   0.181   7.594   3.207
 2424W        W 3721   0.159   5.154   6.984
 2425W        W 3722   5.437   1.667   5.133
 2426W        W 3723   2.675   1.722   1.055
 2427W        W 3724   1.880   6.525   1.425
 2428W        W 3725   0.325   7.020   6.262
 2429W        W 3726   4.205   2.435   0.133
 2430W        W 3727   3.630   3.316   3.366
 2431W        W 3728   2.681   5.839   6.015
 2432W        W 3729   1.880   3.799   7.031
 2433W        W 3730   6.251   4.524   3.358
 2434W        W 3731   2.589   2.262   0.769
 2435W        W 3732   1.427   7.550   7.745
 2436W        W 3733   2.446   2.640   0.448
 2437W        W 3734   2.270   7.639   3.887
 2438W        W 3735   5.276   7.496   3.361
 2439W        W 3736   3.836   4.279   7.706
 2440W        W 3737   6.428   5.386   6.414
 2441W        W 3738   4.001   7.482   5.566
 2442W        W 3739   4.167   6.508   5.791
 2443W        W 3740   0.785   0.665   6.697
 2444W        W 3741   3.669   1.598   1.698
 2445W        W 3742   6.566   6.957   1.403
 2446W        W 3743   2.570   5.866   3.061
 2447W        W 3744   3.566   6.301   0.415
 2448W        W 3745   1.692   2.810   0.502
 2449W        W 3746   5.311   5.943   1.339
 2450W        W 3747   4.580   5.062   2.598
 2451W        W 3748   4.269   3.752   4.336
 2452W        W 3749   2.388   1.718   5.486
 2453W        W 3750   4.038   4.363   2.595
 2454W        W 3751   1.007   4.147   7.490
 2455W        W 3752   2.507   5.349   1.600
 2456W        W 3753   5.623   3.214   3.584
 2457W        W 3754   4.386   1.266   6.179
 2458W        W 3755   2.690   0.122   7.272
 2459W        W 3756   7.751   4.845   6.838
 2460W        W 3757   3.636   5.054   7.798
 2461W        W 3758   2.852   5.828   2.154
 2462W        W 3759   1.063   1.896   1.708
 2463W        W 3760   2.323   3.788   5.739
 2464W        W 3761   3.314   3.757   3.485
 2465W        W 3762   3.992   2.676   3.703
 2466W        W 3763   7.847   6.382   4.938
 2467W        W 3764   6.192   1.503   5.375
 2468W        W 3765   7.272   5.695   3.401
 2469W        W 3766   1.751   3.885   6.434
 2470W        W 3767   1.524   2.580   4.421
 2471W        W 3768   2.941   3.943   5.629
 2472W        W 3769   6.937   2.368   2.131
 2473W        W 3770   2.582   6.225   0.985
 2474W        W 3771   5.544   1.766   3.837
 2475W        W 3772   6.619   1.096   7.711
 2476W        W 3773   2.931   3.060   2.293
 2477W        W 3774   2.894   2.756   0.642
 2478W        W 3775   4.966   7.599   3.900
 2479W        W 3776   2.811   7.005   5.059
 2480W        W 3777   0.876   7.198   7.053
 2481W        W 3778   5.157   6.276   1.024
 2482W        W 3779   6.893   5.071   5.193
 2483W        W 3780   5.243   7.000   3.580
 2484W        W 3781   7.417   4.170   5.291
 2485W        W 3782   3.974   5.042   3.227
 2486W        W 3783   6.913   4.042   7.070
 2487W        W 3784   7.773   5.127   4.943
 2488W        W 3785   6.335   5.809   0.360
 2489W        W 3786   4.944   0.346   4.545
 2490W        W 3787   7.732   1.634   1.085
 2491W        W 3788   1.000   5.871   6.157
 2492W        W 3789   3.535   5.832   7.183
 2493W        W 3790   4.285   1.510   0.373
 2494W        W 3791   6.059   7.050   0.013
 2495W        W 3792   3.260   4.584   3.289
 2496W        W 3793   6.609   2.451   5.908
 2497W        W 3794   4.436   4.952   4.700
 2498W        W 3795   5.545   2.630   5.819
 2499W        W 3796   1.404   2.020   2.185
 2500W        W 3797   5.132   2.349   6.064
 2501W        W 3798   2.704   7.130   1.074
 2502W        W 3799   0.081   4.084   7.220
 2503W        W 3800   2.168   1.323   7.575
 2504W        W 3801   1.284   0.581   5.247
 2505W        W 3802   1.451   5.430   3.326
 2506W        W 3803   1.892   7.075   6.058
 2507W        W 3804   3.305   6.248   3.908
 2508W        W 3805   5.047   1.882   4.796
 2509W        W 3806   7.404   4.451   6.934
 2510W        W 3807   2.539   1.081   3.998
 2511W        W 3808   2.725   4.810   0.696
 2512W        W 3809   7.445   5.691   7.374
 2513W        W 3810   1.779   5.837   7.500
 2514W        W 3811   5.602   1.385   0.253
 2515W        W 3812   5.429   3.434   7.437
 2516W        W 3813   4.773   4.473   2.067
 2517W        W 3814   6.054   0.955   2.444
 2518W        W 3815   0.097   5.353   7.504
 2519W        W 3816   6.928   6.967   5.344
 2520W        W 3817   1.612   1.833   0.224
 2521W        W 3818   4.544   4.298   2.798
 2522W        W 3819   3.662   7.024   7.143
 2523W        W 3820   7.754   2.915   4.730
 2524W        W 3821   1.880   7.500   6.780
 2525W        W 3822   1.968   1.488   6.143
 2526W        W 3823   3.397   2.205   7.298
 2527W        W 3824   2.638   5.580   2.656
 2528W        W 3825   6.586   7.082   1.879
 2529W        W 3826   4.848   0.703   3.729
 2530W        W 3827   2.348   4.055   1.148
 2531W        W 3828   1.020   6.960   7.857
 2532W        W 3829   0.843   4.232   3.082
 2533W        W 3830   0.961   3.154   7.178
 2534W        W 3831   0.508   2.250   4.451
 2535W        W 3832   6.508   3.033   1.689
 2536W        W 3833   5.181   0.446   6.438
 2537W        W 3834   4.795   2.756   5.034
 2538W        W 3835   3.099   7.176   5.902
 2539W        W 3836   5.938   5.882   3.728
 2540W        W 3837   3.253   7.249   7.232
 2541W        W 3838   2.627   2.178   0.225
 2542W        W 3839   1.843   3.847   5.953
 2543W        W 3840   1.382   2.455   5.771
 2544W        W 3841   5.668   0.645   2.311
 2545W        W 3842   7.350   7.728   2.054
 2546W        W 3843   1.239   2.793   6.385
 2547W        W 3844   4.636   2.873   3.803
 2548W        W 3845   6.603   2.841   0.006
 2549W        W 3846   0.430   5.011   7.394
 2550W        W 3847   0.863   5.963   2.829
 2551W        W 3848   7.716   4.485   2.925
 2552W        W 3849   3.848   3.998   2.857
 2553W        W 3850   3.340   2.351   1.299
 2554W        W 3851   6.099   2.473   1.796
 2555W        W 3852   7.255   5.264   7.623
 2556W        W 3853   5.504   6.736   7.705
 2557W        W 3854   5.202   0.037   2.373
 2558W        W 3855   7.401   2.665   2.003
 2559W        W 3856   0.901   0.212   2.792
 2560W        W 3857   0.499   4.755   1.322
 2561W        W 3858   4.134   6.265   2.040
 2562W        W 3859   3.070   7.349   3.021
 2563W        W 3860   4.417   5.805   3.064
 2564W        W 3861   0.752   5.058   0.935
 2565W        W 3862   3.207   2.276   4.889
 2566W        W 3863   7.356   5.329   4.073
 2567W        W 3864   4.171   6.358   1.576
 2568W        W 3865   5.206   5.593   5.697
 2569W        W 3866   0.825   0.879   2.137
 2570W        W 3867   7.386   1.230   2.345
 2571W        W 3868   4.391   5.286   2.990
 2572W        W 3869   2.350   6.068   4.704
 2573W        W 3870   4.935   0.979   7.392
 2574W        W 3871   1.185   6.849   3.728
 2575W        W 3872   4.809   7.666   4.916
 2576W        W 3873   1.055   2.595   4.830
 2577W        W 3874   1.461   1.022   3.999
 2578W        W 3875   5.537   3.055   4.506
 2579W        W 3876   3.793   7.193   5.104
 2580W        W 3877   1.038   2.119   2.606
 2581W        W 3878   4.810   3.757   3.169
 2582W        W 3879   2.196   0.491   2.292
 2583W        W 3880   4.292   3.186   5.500
 2584W        W 3881   6.777   7.642   3.739
 2585W        W 3882   0.762   6.766   6.653
 2586W        W 3883   5.611   6.297   3.644
 2587W        W 3884   1.337   5.535   6.050
 2588W        W 3885   4.766   5.849   5.820
 2589W        W 3886   1.903   0.933   3.265
 2590W        W 3887   6.676   2.153   7.067
 2591W        W 3888   0.618   7.271   2.359
 2592W        W 3889   2.197   2.656   1.953
 2593W        W 3890   6.139   4.093   3.673
 2594W        W 3891   7.397   1.834   5.380
 2595W        W 3892   5.077   6.977   7.837
 2596W        W 3893   5.399   2.034   2.209
 2597W        W 3894   1.755   2.388   2.059
 2598W        W 3895   7.627   5.361   6.743
 2599W        W 3896   7.252   4.129   4.787
 2600W        W 3897   6.126   7.167   3.521
 2601W        W 3898   1.579   4.825   6.908
 2602W        W 3899   0.923   3.950   6.474
 2603W        W 3900   6.915   2.815   1.792
 2604W        W 3901   2.529   0.223   1.072
 2605W        W 3902   1.892   1.084   4.711
 2606W        W 3903   2.588   6.705   3.512
 2607W        W 3904   4.226   4.744   6.801
 2608W        W 3905   6.264   4.465   6.034
 2609W        W 3906   7.156   1.072   1.734
 2610W        W 3907   1.471   7.468   0.395
 2611W        W 3908   5.913   3.291   4.130
 2612W        W 3909   0.900   0.799   4.854
 2613W        W 3910   4.417   7.592   1.710
 2614W        W 3911   3.628   7.147   7.756
 2615W        W 3912   4.921   4.007   5.106
 2616W        W 3913   1.994   4.544   1.703
 2617W        W 3914   2.027   1.735   7.303
 2618W        W 3915   1.845   6.662   7.885
 2619W        W 3916   6.505   4.558   6.465
 2620W        W 3917   3.971   3.809   6.387
 2621W        W 3918   6.866   6.457   0.176
 2622W        W 3919   5.227   6.506   2.741
 2623W        W 3920   1.544   1.318   6.401
 2624W        W 3921   5.895   2.844   5.518
 2625W        W 3922   4.647   1.710   2.690
 2626W        W 3923   1.334   1.755   3.481
 2627W        W 3924   6.828   7.374   1.374
 2628W        W 3925   7.032   0.145   7.198
 2629W        W 3926   5.015   4.413   1.647
 2630W        W 3927   6.726   5.555   2.871
 2631W        W 3928   4.227   7.814   2.319
 2632W        W 3929   3.500   6.059   0.857
 2633W        W 3930   2.778   1.518   2.149
 2634W        W 3931   3.114   0.284   1.877
 2635W        W 3932   3.112   5.929   0.543
 2636W        W 3933   3.198   1.667   5.606
 2637W        W 3934   1.455   7.857   0.155
 2638W        W 3935   1.257   7.387   3.048
 2639W        W 3936   4.750   6.637   7.774
 2640W        W 3937   0.682   6.778   0.893
 2641W        W 3938   4.266   1.732   7.505
 2642W        W 3939   3.093   5.717   6.377
 2643W        W 3940   1.941   2.051   5.285
 2644W        W 3941   2.812   0.644   6.459
 2645W        W 3942   3.022   2.365   1.678
 2646W        W 3943   1.236   2.223   0.976
 2647W        W 3944   7.427   2.251   1.110
 2648W        W 3945   4.780   2.316   4.770
 2649W        W 3946   0.300   2.243   2.072
 2650W        W 3947   7.054   2.484   6.316
 2651W        W 3948   5.241   7.376   6.419
 2652W        W 3949   7.014   4.872   5.627
 2653W        W 3950   7.304   7.566   5.508
 2654W        W 3951   2.503   3.328   4.440
 2655W        W 3952   3.177   7.439   0.985
 2656W        W 3953   4.221   4.088   4.778
 2657W        W 3954   5.496   6.863   5.721
 2658W        W 3955   2.553   2.281   1.779
 2659W        W 3956   4.557   6.856   5.957
 2660W        W 3957   7.828   4.101   1.053
 2661W        W 3958   5.467   4.236   1.979
 2662W        W 3959   3.857   5.043   7.024
 2663W        W 3960   2.349   3.674   6.796
 2664W        W 3961   1.563   2.120   1.699
 2665W        W 3962   1.312   3.725   6.570
 2666W        W 3963   3.929   1.036   1.031
 2667W        W 3964   0.733   4.972   4.744
 2668W        W 3965   4.388   3.358   3.107
 2669W        W 3966   2.069   5.553   3.951
 2670W        W 3967   1.171   3.364   5.533
 2671W        W 3968   7.431   1.347   7.389
 2672W        W 3969   2.386   1.780   2.018
 2673W        W 3970   3.438   0.478   6.425
 2674W        W 3971   2.782   3.308   4.014
 2675W        W 3972   3.462   4.041   7.919
 2676W        W 3973   5.130   1.191   1.112
 2677W        W 3974   6.228   2.505   5.386
 2678W        W 3975   5.211   7.900   6.282
 2679W        W 3976   2.451   1.045   0.253
 2680W        W 3977   5.116   0.269   2.912
 2681W        W 3978   0.544   5.485   5.421
 2682W        W 3979   4.003   5.369   0.467
 2683W        W 3980   3.452   6.677   6.000
 2684W        W 3981   5.394   3.290   6.177
 2685W        W 3982   2.360   6.946   4.741
 2686W        W 3983   2.878   4.314   0.739
 2687W        W 3984   1.075   6.621   1.856
 2688W        W 3985   0.939   4.389   0.443
 2689W        W 3986   3.123   7.930   0.926
 2690W        W 3987   5.332   0.055   0.376
 2691W        W 3988   4.658   5.974   0.586
 2692W        W 3989   7.689   6.814   0.833
 2693W        W 3990   6.705   0.463   6.850
 2694W        W 3991   7.997   0.619   5.394
 2695W        W 3992   0.723   0.353   7.704
 2696W        W 3993   6.503   0.341   6.225
 2697W        W 3994   6.703   6.035   2.894
 2698W        W 3995   5.022   0.460   7.970
 2699W        W 3996   4.594   5.518   1.316
 2700W        W 3997   3.435   4.136   1.398
 2701W        W 3998   3.785   3.769   4.648
 2702W        W 3999   5.190   1.025   7.842
 2703W        W 4000   1.686   3.701   0.635
 2704W        W 4001   5.453   2.644   4.223
 2705W        W 4002   3.707   1.731   7.446
 2706W        W 4003   4.641   0.832   4.653
 2707W        W 4004   5.799   1.516   6.729
 2708W        W 4005   7.297   4.839   4.492
 2709W        W 4006   5.885   2.144   1.156
 2710W        W 4007   2.254   3.860   6.311
 2711W        W 4008   1.839   6.214   2.803
 2712W        W 4009   6.126   0.209   3.525
 2713W        W 4010   5.687   3.382   2.159
 2714W        W 4011   4.016   6.331   0.237
 2715W        W 4012   5.477   1.529   4.653
 2716W        W 4013   4.801   5.121   1.656
 2717W        W 4014   4.336   7.618   4.809
 2718W        W 4015   3.910   0.086   4.446
 2719W        W 4016   6.373   4.905   7.174
 2720W        W 4017   2.774   5.314   6.002
 2721W        W 4018   7.739   7.456   0.833
 2722W        W 4019   0.761   0.940   5.366
 2723W        W 4020   0.982   3.436   3.674
 2724W        W 4021   3.916   3.835   3.337
 2725W        W 4022   6.796   2.900   6.122
 2726W        W 4023   0.220   1.001   5.359
 2727W        W 4024   0.941   3.356   0.176
 2728W        W 4025   3.463   1.956   2.433
 2729W        W 4026   0.250   1.530   1.152
 2730W        W 4027   1.844   4.701   2.684
 2731W        W 4028   4.635   5.937   0.069
 2732W        W 4029   4.674   3.536   2.702
 2733W        W 4030   0.630   6.261   1.041
 2734W        W 4031   5.158   3.024   3.637
 2735W        W 4032   7.152   6.783   3.943
 2736W        W 4033   2.049   2.758   4.720
 2737W        W 4034   2.636   7.239   3.517
 2738W        W 4035   5.943   0.509   3.955
 2739W        W 4036   0.722   6.187   4.321
 2740W        W 4037   7.444   6.524   6.521
 2741W        W 4038   2.121   2.068   2.654
 2742W        W 4039   2.067   6.578   5.473
 2743W        W 4040   7.135   2.193   3.270
 2744W        W 4041   2.512   7.486   5.134
 2745W        W 4042   0.387   2.810   1.919
 2746W        W 4043   6.324   0.187   4.276
 2747W        W 4044   7.849   5.118   0.833
 2748W        W 4045   2.445   7.618   5.628
 2749W        W 4046   4.318   3.264   4.015
 2750W        W 4047   6.852   3.196   4.480
 2751W        W 4048   6.506   5.397   6.891
 2752W        W 4049   7.929   3.969   3.127
 2753W        W 4050   6.516   0.948   7.197
 2754W        W 4051   2.589   0.126   4.024
 2755W        W 4052   3.821   6.636   1.848
 2756W        W 4053   7.194   2.185   2.763
 2757W        W 4054   2.995   7.608   3.578
 2758W        W 4055   5.449   3.143   4.019
 2759W        W 4056   5.207   5.080   7.280
 2760W        W 4057   3.690   2.010   3.009
 2761W        W 4058   5.853   0.378   1.704
 2762W        W 4059   2.337   2.456   4.426
 2763W        W 4060   7.176   4.189   5.776
 2764W        W 4061   6.912   6.537   1.504
 2765W        W 4062   3.824   4.257   4.527
 2766W        W 4063   6.551   6.337   3.385
 2767W        W 4064   4.449   3.025   0.132
 2768W        W 4065   6.007   2.740   4.951
 2769W        W 4066   7.035   2.623   3.040
 2770W        W 4067   7.060   0.992   6.108
 2771W        W 4068   2.876   2.267   4.482
 2772W        W 4069   7.997   7.211   6.058
 2773W        W 4070   4.297   1.238   7.592
 2774W        W 4071   5.536   1.543   0.854
 2775W        W 4072   7.716   4.618   6.419
 2776W        W 4073   0.617   3.578   1.046
 2777W        W 4074   6.859   6.702   3.503
 2778W        W 4075   4.176   1.545   6.597
 2779W        W 4076   7.371   1.735   2.626
 2780W        W 4077   2.099   4.948   1.359
 2781W        W 4078   5.512   3.226   5.652
 2782W        W 4079   3.567   2.859   4.372
 2783W        W 4080   4.035   6.915   6.663
 2784W        W 4081   0.837   1.481   6.899
 2785W        W 4082   4.079   2.097   6.622
 2786W        W 4083   3.885   4.587   3.527
 2787W        W 4084   1.239   6.828   0.948
 2788W        W 4085   5.523   0.151   3.237
 2789W        W 4086   3.007   3.151   4.463
 2790W        W 4087   2.301   0.606   3.159
 2791W        W 4088   2.064   7.514   6.003
 2792W        W 4089   6.560   1.717   6.454
 2793W        W 4090   5.200   2.707   0.208
 2794W        W 4091   0.317   2.426   7.364
 2795W        W 4092   0.113   2.912   1.570
 2796W        W 4093   6.683   3.322   2.064
 2797W        W 4094   0.468   0.338   3.131
 2798W        W 4095   1.134   0.975   3.303
 2799W        W 4096   2.335   1.946   4.406
 2800W        W 4097   6.253   7.750   4.413
 2801W        W 4098   1.186   5.948   7.210
 2802W        W 4099   4.648   5.509   2.021
 2803W        W 4100   1.514   2.009   6.748
 2804W        W 4101   5.649   6.180   1.642
 2805W        W 4102   5.439   6.812   5.209
 2806W        W 4103   0.477   4.680   7.818
 2807W        W 4104   0.556   5.789   2.392
 2808W        W 4105   6.272   7.621   7.019
 2809W        W 4106   4.463   2.393   4.383
 2810W        W 4107   2.908   0.750   2.849
 2811W        W 4108   6.942   4.132   2.518
 2812W        W 4109   6.941   1.260   5.189
 2813W        W 4110   0.193   4.663   2.090
 2814W        W 4111   7.592   0.064   3.783
 2815W        W 4112   1.740   0.626   7.870
 2816W        W 4113   6.875   7.217   4.084
 2817W        W 4114   2.720   4.298   5.305
 2818W        W 4115   3.233   1.042   4.825
 2819W        W 4116   0.961   5.005   7.124
 2820W        W 4117   7.381   6.703   1.307
 2821W        W 4118   7.971   4.394   3.352
 2822W        W 4119   7.875   5.553   3.502
 2823W        W 4120   4.836   0.853   6.407
 2824W        W 4121   7.211   5.433   1.623
 2825W        W 4122   3.147   5.745   5.887
 2826W        W 4123   1.844   2.214   4.828
 2827W        W 4124   3.966   4.713   7.561
 2828W        W 4125   3.231   0.502   3.725
 2829W        W 4126   3.846   1.435   2.737
 2830W        W 4127   1.681   2.878   2.678
 2831W        W 4128   3.556   5.427   6.785
 2832W        W 4129   7.958   3.791   7.836
 2833W        W 4130   1.492   4.113   0.441
 2834W        W 4131   4.536   6.672   1.547
 2835W        W 4132   5.346   3.719   1.866
 2836W        W 4133   6.950   4.984   4.108
 2837W        W 4134   2.957   1.383   7.034
 2838W        W 4135   6.548   6.166   1.709
 2839W        W 4136   0.735   3.389   2.605
 2840W        W 4137   6.677   0.579   0.207
 2841W        W 4138   7.471   6.588   2.948
 2842W        W 4139   6.740   5.774   6.680
 2843W        W 4140   1.848   4.244   7.305
 2844W        W 4141   0.741   7.139   2.825
 2845W        W 4142   7.347   5.199   5.365
 2846W        W 4143   6.027   5.222   5.402
 2847W        W 4144   0.199   4.902   2.766
 2848W        W 4145   0.103   1.926   5.540
 2849W        W 4146   3.458   1.292   6.421
 2850W        W 4147   4.924   7.144   5.798
 2851W        W 4148   0.011   0.347   6.489
 2852W        W 4149   5.957   1.783   5.860
 2853W        W 4150   0.038   1.318   7.673
 2854W        W 4151   1.999   6.453   4.619
 2855W        W 4152   4.345   6.035   1.101
 2856W        W 4153   7.672   7.282   0.382
 2857W        W 4154   2.213   7.194   0.983
 2858W        W 4155   6.255   0.468   0.821
 2859W        W 4156   0.570   4.590   2.863
 2860W        W 4157   3.708   5.585   0.030
 2861W        W 4158   7.382   5.652   7.936
 2862W        W 4159   4.357   3.115   6.390
 2863W        W 4160   1.294   7.133   2.618
 2864W        W 4161   7.555   5.064   6.251
 2865W        W 4162   5.725   3.392   1.641
 2866W        W 4163   6.843   6.020   6.234
 2867W        W 4164   3.298   2.570   5.788
 2868W        W 4165   4.943   2.315   2.041
 2869W        W 4166   7.351   1.161   3.073
 2870W        W 4167   4.334   2.648   4.820
 2871W        W 4168   6.690   1.098   1.598
 2872W        W 4169   3.062   3.244   3.540
 2873W        W 4170   0.854   0.066   3.326
 2874W        W 4171   0.322   1.238   0.690
 2875W        W 4172   0.511   5.687   3.208
 2876W        W 4173   1.297   7.142   5.489
 2877W        W 4174   7.196   4.701   4.959
 2878W        W 4175   7.395   1.030   4.715
 2879W        W 4176   7.669   7.724   6.275
 2880W        W 4177   0.802   6.497   3.760
 2881W        W 4178   6.560   6.379   6.363
 2882W        W 4179   3.797   1.379   0.326
 2883W        W 4180   6.368   0.883   3.857
 2884W        W 4181   6.456   0.607   3.388
 2885W        W 4182   3.737   2.173   6.263
 2886W        W 4183   7.161   5.829   5.822
 2887W        W 4184   3.023   0.525   4.222
 2888W        W 4185   0.586   1.288   5.096
 2889W        W 4186   7.395   2.613   2.506
 2890W        W 4187   3.339   1.113   0.121
 2891W        W 4188   3.579   7.078   5.626
 2892W        W 4189   1.069   6.801   5.081
 2893W        W 4190   3.610   6.196   1.519
 2894W        W 4191   4.395   6.037   6.675
 2895W        W 4192   7.734   4.078   4.226
 2896W        W 4193   7.936   0.045   3.374
 2897W        W 4194   1.687   7.264   1.384
 2898W        W 4195   3.329   4.732   1.585
 2899W        W 4196   6.287   3.901   7.209
 2900W        W 4197   5.218   7.600   6.861
 2901W        W 4198   6.414   6.968   6.282
 2902W        W 4199   6.056   3.713   0.443
 2903W        W 4200   4.299   4.938   0.303
 2904W        W 4201   4.535   3.129   1.100
 2905W        W 4202   4.623   3.627   1.139
 2906W        W 4203   4.431   3.785   3.552
 2907W        W 4204   5.945   4.666   5.380
 2908W        W 4205   3.115   7.387   7.729
 2909W        W 4206   6.150   2.592   5.916
 2910W        W 4207   5.071   7.037   0.369
 2911W        W 4208   7.614   2.536   4.288
 2912W        W 4209   2.879   2.641   1.273
 2913W        W 4210   5.584   6.238   2.162
 2914W        W 4211   3.604   3.791   1.787
 2915W        W 4212   5.474   0.937   0.396
 2916W        W 4213   4.891   3.539   4.947
 2917W        W 4214   4.135   7.007   5.707
 2918W        W 4215   2.626   5.089   2.396
 2919W        W 4216   4.911   2.512   5.450
 2920W        W 4217   5.991   7.197   0.743
 2921W        W 4218   2.566   3.027   0.228
 2922W        W 4219   1.709   2.541   5.395
 2923W        W 4220   6.757   7.780   4.432
 2924W        W 4221   1.482   4.089   7.696
 2925W        W 4222   7.366   2.889   4.010
 2926W        W 4223   0.833   4.579   5.175
 2927W        W 4224   0.620   4.815   3.816
 2928W        W 4225   3.620   1.601   1.189
 2929W        W 4226   3.005   1.747   0.189
 2930W        W 4227   6.544   4.202   4.525
 2931W        W 4228   4.818   4.703   6.672
 2932W        W 4229   7.040   2.248   7.471
 2933W        W 4230   2.837   2.853   1.729
 2934W        W 4231   6.252   2.164   6.140
 2935W        W 4232   5.157   2.816   2.233
 2936W        W 4233   5.155   7.009   2.498
 2937W        W 4234   5.591   5.385   7.412
 2938W        W 4235   0.816   2.248   7.328
 2939W        W 4236   0.989   7.181   5.893
 2940W        W 4237   6.030   7.377   6.199
 2941W        W 4238   4.826   7.426   5.397
 2942W        W 4239   1.952   6.073   6.014
 2943W        W 4240   3.271   4.436   5.319
 2944W        W 4241   5.992   7.705   1.618
 2945W        W 4242   4.662   3.089   7.772
 2946W        W 4243   6.305   3.372   2.875
 2947W        W 4244   4.055   2.844   4.184
 2948W        W 4245   3.670   7.549   7.346
 2949W        W 4246   4.697   4.268   4.767
 2950W        W 4247   4.392   3.644   4.943
 2951W        W 4248   7.484   5.038   0.358
 2952W        W 4249   2.018   1.156   6.546
 2953W        W 4250   6.581   4.574   5.619
 2954W        W 4251   0.141   1.204   3.687
 2955W        W 4252   2.468   4.585   7.133
 2956W        W 4253   6.267   2.332   7.882
 2957W        W 4254   5.195   6.807   6.129
 2958W        W 4255   1.967   3.374   7.300
 2959W        W 4256   2.384   6.654   7.205
 2960W        W 4257   3.565   6.423   2.238
 2961W        W 4258   4.917   6.443   7.328
 2962W        W 4259   7.359   0.249   4.208
 2963W        W 4260   1.656   6.815   3.614
 2964W        W 4261   2.814   5.380   0.765
 2965W        W 4262   1.911   3.441   6.744
 2966W        W 4263   6.840   0.130   1.750
 2967W        W 4264   7.356   0.399   6.885
 2968W        W 4265   3.847   1.849   3.887
 2969W        W 4266   4.835   6.747   6.495
 2970W        W 4267   1.709   4.198   2.667
 2971W        W 4268   7.965   4.383   6.936
 2972W        W 4269   4.598   7.895   6.204
 2973W        W 4270   5.238   3.845   6.036
 2974W        W 4271   6.237   5.294   4.611
 2975W        W 4272   6.464   1.507   1.426
 2976W        W 4273   3.222   3.049   1.437
 2977W        W 4274   1.865   7.054   5.545
 2978W        W 4275   2.052   2.898   0.179
 2979W        W 4276   4.787   4.708   5.009
 2980W        W 4277   0.538   6.621   2.092
 2981W        W 4278   0.199   2.664   2.385
 2982W        W 4279   0.011   6.640   2.133
 2983W        W 4280   0.424   4.086   2.870
 2984W        W 4281   7.746   4.835   3.349
 2985W        W 4282   2.374   0.800   3.608
 2986W        W 4283   0.866   5.105   7.626
 2987W        W 4284   0.096   2.253   4.014
 2988W        W 4285   4.731   5.343   5.846
 2989W        W 4286   0.201   6.891   4.609
 2990W        W 4287   7.823   6.377   6.175
 2991W        W 4288   7.460   3.734   4.470
 2992W        W 4289   2.260   6.919   2.093
 2993W        W 4290   1.655   6.398   5.748
 2994W        W 4291   7.342   1.875   1.439
 2995W        W 4292   6.106   5.019   0.801
 2996W        W 4293   4.225   0.833   5.986
 2997W        W 4294   0.754   7.033   5.499
 2998W        W 4295   7.116   3.414   2.333
 2999W        W 4296   3.506   3.556   3.897
 3000W        W 4297   4.222   5.349   7.994
 3001W        W 4298   3.798   1.987   2.012
 3002W        W 4299   1.903   4.814   6.494
 3003W        W 4300   1.995   1.598   5.111
 3004W        W 4301   5.116   1.352   2.599
 3005W        W 4302   7.211   6.690   6.082
 3006W        W 4303   7.024   6.258   6.679
 3007W        W 4304   6.236   3.846   4.679
 3008W        W 4305   0.298   7.556   0.935
 3009W        W 4306   3.320   5.956   4.833
 3010W        W 4307   5.305   1.714   6.755
 3011W        W 4308   5.463   5.398   0.493
 3012W        W 4309   6.219   6.928   7.135
 3013W        W 4310   7.820   0.238   1.153
 3014W        W 4311   0.391   1.970   7.560
 3015W        W 4312   0.265   3.825   1.387
 3016W        W 4313   7.118   1.325   4.286
 3017W        W 4314   3.482   7.576   5.630
 3018W        W 4315   4.550   0.363   7.039
 3019W        W 4316   0.932   1.406   5.423
 3020W        W 4317   2.476   6.900   6.206
 3021W        W 4318   6.836   0.740   3.996
 3022W        W 4319   3.410   7.503   3.382
 3023W        W 4320   2.245   3.002   6.036
 3024W        W 4321   1.736   3.761   4.586
 3025W        W 4322   1.303   6.840   4.637
 3026W        W 4323   7.561   1.375   5.985
 3027W        W 4324   4.542   6.351   3.727
 3028W        W 4325   1.146   1.681   6.469
 3029W        W 4326   1.109   6.546   2.791
 3030W        W 4327   2.838   6.456   7.571
 3031W        W 4328   0.761   4.388   6.603
 3032W        W 4329   2.032   4.469   1.172
 3033W        W 4330   5.249   6.548   4.832
 3034W        W 4331   0.823   2.017   2.145
 3035W        W 4332   6.092   0.274   1.284
 3036W        W 4333   2.090   6.952   1.632
 3037W        W 4334   0.868   6.791   2.487
 3038W        W 4335   3.458   7.616   0.611
 3039W        W 4336   6.345   4.669   4.617
 3040W        W 4337   3.035   5.330   1.266
 3041W        W 4338   3.309   3.119   2.635
 3042W        W 4339   7.962   3.768   6.359
 3043W        W 4340   0.510   7.646   1.389
 3044W        W 4341   5.491   2.630   6.781
 3045W        W 4342   1.843   4.437   7.851
 3046W        W 4343   0.082   3.144   2.636
 3047W        W 4344   6.792   4.912   4.668
 3048W        W 4345   6.795   1.871   3.414
 3049W        W 4346   1.977   7.542   3.071
 3050W        W 4347   7.326   6.667   3.432
 3051W        W 4348   4.433   2.152   2.679
 3052W        W 4349   7.477   0.812   1.332
 3053W        W 4350   1.671   5.985   4.610
 3054W        W 4351   1.716   3.265   0.226
 3055W        W 4352   3.182   2.071   6.049
 3056W        W 4353   1.807   0.803   4.299
 3057W        W 4354   4.315   4.419   0.137
 3058W        W 4355   7.057   2.002   0.095
 3059W        W 4356   4.712   3.321   3.477
 3060W        W 4357   3.079   5.876   1.077
 3061W        W 4358   6.481   4.268   0.208
 3062W        W 4359   6.110   6.320   6.552
 3063W        W 4360   0.999   3.896   0.369
 3064W        W 4361   1.253   6.368   6.075
 3065W        W 4362   4.509   2.980   2.716
 3066W        W 4363   7.290   4.529   1.008
 3067W        W 4364   5.076   2.845   2.800
 3068W        W 4365   4.312   5.065   4.226
 3069W        W 4366   2.550   3.855   5.265
 3070W        W 4367   2.838   2.910   7.734
 3071W        W 4368   4.730   5.030   2.123
 3072W        W 4369   5.302   4.533   3.096
 3073W        W 4370   5.460   7.517   2.475
 3074W        W 4371   4.717   5.174   3.466
 3075W        W 4372   3.270   3.087   4.014
 3076W        W 4373   5.425   1.206   4.254
 3077W        W 4374   7.820   1.633   1.681
 3078W        W 4375   3.135   4.905   0.947
 3079W        W 4376   1.355   5.842   7.738
 3080W        W 4377   5.179   2.493   0.708
 3081W        W 4378   4.732   0.192   6.578
 3082W        W 4379   6.118   1.947   1.675
 3083W        W 4380   5.865   0.965   1.984
   8.00000   8.00000   8.00000
