Martini system from ../2_Creating_coordinates/TYR-THR-TYR_aa.pdb
 4217
    1TYR     BB    1   6.468   7.668   3.734
    1TYR    SC1    2   6.210   7.682   3.561
    1TYR    SC2    3   6.309   7.792   3.371
    1TYR    SC3    4   6.174   7.659   3.219
    2THR     BB    5   6.633   7.561   3.413
    2THR    SC1    6   6.849   7.510   3.545
    3TYR     BB    7   6.769   7.707   3.159
    3TYR    SC1    8   6.562   7.673   2.956
    3TYR    SC2    9   6.642   7.776   2.754
    3TYR    SC3   10   6.550   7.594   2.622
    1TYR     BB   11   3.699   7.785   7.514
    1TYR    SC1   12   3.608   8.048   7.653
    1TYR    SC2   13   3.436   7.950   7.790
    1TYR    SC3   14   3.494   8.098   7.974
    2THR     BB   15   3.677   7.639   7.861
    2THR    SC1   16   3.784   7.421   7.772
    3TYR     BB   17   3.449   7.505   8.046
    3TYR    SC1   18   3.394   7.721   8.233
    3TYR    SC2   19   3.223   7.644   8.384
    3TYR    SC3   20   3.335   7.751   8.571
    1TYR     BB   21   3.179   4.660   1.583
    1TYR    SC1   22   3.041   4.735   1.852
    1TYR    SC2   23   3.019   4.970   1.808
    1TYR    SC3   24   2.802   4.974   1.915
    2THR     BB   25   2.920   4.886   1.430
    2THR    SC1   26   2.998   4.810   1.195
    3TYR     BB   27   2.890   5.201   1.368
    3TYR    SC1   28   2.704   5.283   1.577
    3TYR    SC2   29   2.666   5.519   1.551
    3TYR    SC3   30   2.430   5.489   1.602
    1TYR     BB   31   5.349   0.374   5.293
    1TYR    SC1   32   5.350   0.088   5.415
    1TYR    SC2   33   5.426   0.150   5.635
    1TYR    SC3   34   5.279  -0.015   5.735
    2THR     BB   35   5.189   0.471   5.620
    2THR    SC1   36   5.147   0.708   5.525
    3TYR     BB   37   5.288   0.557   5.914
    3TYR    SC1   38   5.234   0.314   6.066
    3TYR    SC2   39   5.302   0.354   6.294
    3TYR    SC3   40   5.107   0.235   6.376
    1TYR     BB   41   1.969   1.471   6.278
    1TYR    SC1   42   1.895   1.172   6.323
    1TYR    SC2   43   1.975   1.157   6.550
    1TYR    SC3   44   1.789   1.014   6.610
    2THR     BB   45   1.824   1.520   6.623
    2THR    SC1   46   1.846   1.775   6.591
    3TYR     BB   47   1.931   1.502   6.926
    3TYR    SC1   48   1.814   1.250   7.013
    3TYR    SC2   49   1.881   1.214   7.242
    3TYR    SC3   50   1.660   1.129   7.297
    1TYR     BB   51   6.561   2.716   4.699
    1TYR    SC1   52   6.683   2.891   4.926
    1TYR    SC2   53   6.516   3.064   4.922
    1TYR    SC3   54   6.524   3.083   5.164
    2THR     BB   55   6.234   2.785   4.873
    2THR    SC1   56   6.119   2.617   4.714
    3TYR     BB   57   6.009   3.016   4.866
    3TYR    SC1   58   6.064   3.158   5.114
    3TYR    SC2   59   5.906   3.338   5.132
    3TYR    SC3   60   5.881   3.298   5.370
    1TYR     BB   61   4.656   1.570   5.200
    1TYR    SC1   62   4.561   1.847   5.095
    1TYR    SC2   63   4.554   1.788   4.861
    1TYR    SC3   64   4.353   1.921   4.831
    2THR     BB   65   4.399   1.433   4.961
    2THR    SC1   66   4.439   1.197   5.059
    3TYR     BB   67   4.387   1.351   4.650
    3TYR    SC1   68   4.238   1.575   4.537
    3TYR    SC2   69   4.216   1.536   4.301
    3TYR    SC3   70   3.988   1.618   4.305
    1TYR     BB   71   7.004   0.752   0.497
    1TYR    SC1   72   7.171   0.911   0.289
    1TYR    SC2   73   7.125   0.768   0.101
    1TYR    SC3   74   7.113   0.961  -0.047
    2THR     BB   75   6.746   0.736   0.222
    2THR    SC1   76   6.579   0.632   0.390
    3TYR     BB   77   6.683   0.544  -0.029
    3TYR    SC1   78   6.775   0.708  -0.251
    3TYR    SC2   79   6.737   0.584  -0.454
    3TYR    SC3   80   6.666   0.786  -0.568
    1TYR     BB   81   4.484   0.350   3.695
    1TYR    SC1   82   4.335   0.596   3.576
    1TYR    SC2   83   4.428   0.582   3.355
    1TYR    SC3   84   4.214   0.647   3.258
    2THR     BB   85   4.389   0.184   3.370
    2THR    SC1   86   4.477  -0.040   3.463
    3TYR     BB   87   4.513   0.161   3.073
    3TYR    SC1   88   4.338   0.342   2.925
    3TYR    SC2   89   4.412   0.342   2.696
    3TYR    SC3   90   4.182   0.345   2.618
    1TYR     BB   91   1.536   7.359   8.270
    1TYR    SC1   92   1.580   7.521   8.008
    1TYR    SC2   93   1.416   7.405   7.875
    1TYR    SC3   94   1.352   7.612   7.766
    2THR     BB   95   1.170   7.399   8.189
    2THR    SC1   96   1.112   7.297   8.419
    3TYR     BB   97   0.950   7.243   8.013
    3TYR    SC1   98   0.925   7.420   7.783
    3TYR    SC2   99   0.763   7.322   7.634
    3TYR    SC3  100   0.670   7.542   7.586
    1TYR     BB  101   7.850   4.351   8.049
    1TYR    SC1  102   7.596   4.173   8.065
    1TYR    SC2  103   7.435   4.349   8.032
    1TYR    SC3  104   7.297   4.201   7.897
    2THR     BB  105   7.674   4.508   7.755
    2THR    SC1  106   7.889   4.642   7.703
    3TYR     BB  107   7.461   4.745   7.708
    3TYR    SC1  108   7.218   4.594   7.654
    3TYR    SC2  109   7.041   4.752   7.616
    3TYR    SC3  110   6.952   4.614   7.436
    1TYR     BB  111   7.506   6.068   3.823
    1TYR    SC1  112   7.550   5.915   3.556
    1TYR    SC2  113   7.670   6.090   3.442
    1TYR    SC3  114   7.816   5.926   3.338
    2THR     BB  115   7.867   6.168   3.781
    2THR    SC1  116   7.862   6.273   4.018
    3TYR     BB  117   8.030   6.402   3.632
    3TYR    SC1  118   8.139   6.259   3.403
    3TYR    SC2  119   8.267   6.416   3.273
    3TYR    SC3  120   8.438   6.248   3.232
    1TYR     BB  121   2.416   2.022   5.072
    1TYR    SC1  122   2.432   2.302   5.207
    1TYR    SC2  123   2.476   2.223   5.431
    1TYR    SC3  124   2.629   2.408   5.469
    2THR     BB  125   2.721   1.946   5.280
    2THR    SC1  126   2.746   1.721   5.154
    3TYR     BB  127   2.782   1.838   5.577
    3TYR    SC1  128   2.866   2.083   5.711
    3TYR    SC2  129   2.918   2.028   5.939
    3TYR    SC3  130   3.110   2.176   5.935
    1TYR     BB  131   3.791   4.010   2.555
    1TYR    SC1  132   3.684   3.762   2.710
    1TYR    SC2  133   3.864   3.748   2.870
    1TYR    SC3  134   3.708   3.685   3.045
    2THR     BB  135   3.861   4.147   2.900
    2THR    SC1  136   3.922   4.374   2.793
    3TYR     BB  137   4.101   4.132   3.114
    3TYR    SC1  138   3.991   3.947   3.310
    3TYR    SC2  139   4.156   3.919   3.484
    3TYR    SC3  140   3.982   3.922   3.654
    1TYR     BB  141   3.696   5.018   3.553
    1TYR    SC1  142   3.777   4.899   3.829
    1TYR    SC2  143   3.969   5.040   3.866
    1TYR    SC3  144   3.917   5.055   4.103
    2THR     BB  145   3.764   5.350   3.719
    2THR    SC1  146   3.669   5.469   3.511
    3TYR     BB  147   4.020   5.540   3.767
    3TYR    SC1  148   4.075   5.493   4.049
    3TYR    SC2  149   4.266   5.627   4.109
    3TYR    SC3  150   4.164   5.682   4.323
    1TYR     BB  151   5.421   5.260   1.506
    1TYR    SC1  152   5.415   5.143   1.794
    1TYR    SC2  153   5.305   4.936   1.738
    1TYR    SC3  154   5.443   4.816   1.898
    2THR     BB  155   5.528   4.912   1.407
    2THR    SC1  156   5.572   4.998   1.167
    3TYR     BB  157   5.383   4.635   1.330
    3TYR    SC1  158   5.424   4.479   1.573
    3TYR    SC2  159   5.322   4.264   1.539
    3TYR    SC3  160   5.508   4.155   1.652
    1TYR     BB  161   2.206   1.267   4.824
    1TYR    SC1  162   1.914   1.191   4.751
    1TYR    SC2  163   1.910   1.299   4.535
    1TYR    SC3  164   1.777   1.117   4.444
    2THR     BB  165   2.281   1.167   4.469
    2THR    SC1  166   2.534   1.191   4.519
    3TYR     BB  167   2.279   1.310   4.180
    3TYR    SC1  168   2.037   1.197   4.062
    3TYR    SC2  169   2.013   1.291   3.842
    3TYR    SC3  170   1.940   1.076   3.755
    1TYR     BB  171   5.602   7.573   4.701
    1TYR    SC1  172   5.899   7.565   4.793
    1TYR    SC2  173   5.857   7.589   5.028
    1TYR    SC3  174   6.037   7.434   5.080
    2THR     BB  175   5.545   7.342   4.994
    2THR    SC1  176   5.301   7.308   4.915
    3TYR     BB  177   5.487   7.373   5.309
    3TYR    SC1  178   5.746   7.302   5.422
    3TYR    SC2  179   5.727   7.319   5.662
    3TYR    SC3  180   5.861   7.118   5.689
    1TYR     BB  181   1.024   0.825   4.794
    1TYR    SC1  182   0.871   0.644   4.995
    1TYR    SC2  183   1.065   0.541   5.095
    1TYR    SC3  184   0.960   0.547   5.314
    2THR     BB  185   1.251   0.895   5.087
    2THR    SC1  186   1.371   1.076   4.946
    3TYR     BB  187   1.511   0.761   5.220
    3TYR    SC1  188   1.397   0.636   5.457
    3TYR    SC2  189   1.576   0.526   5.575
    3TYR    SC3  190   1.484   0.598   5.788
    1TYR     BB  191   7.227   6.909   5.903
    1TYR    SC1  192   6.946   6.925   5.769
    1TYR    SC2  193   7.018   7.032   5.565
    1TYR    SC3  194   6.860   6.899   5.437
    2THR     BB  195   7.341   6.797   5.562
    2THR    SC1  196   7.574   6.744   5.662
    3TYR     BB  197   7.440   6.937   5.289
    3TYR    SC1  198   7.205   6.903   5.120
    3TYR    SC2  199   7.255   7.003   4.906
    3TYR    SC3  200   7.142   6.821   4.792
    1TYR     BB  201   5.852   0.223   3.935
    1TYR    SC1  202   5.702   0.494   3.958
    1TYR    SC2  203   5.856   0.624   3.826
    1TYR    SC3  204   5.671   0.748   3.728
    2THR     BB  205   5.888   0.317   3.572
    2THR    SC1  206   5.984   0.082   3.525
    3TYR     BB  207   6.094   0.487   3.392
    3TYR    SC1  208   5.940   0.730   3.345
    3TYR    SC2  209   6.076   0.877   3.210
    3TYR    SC3  210   5.882   0.943   3.080
    1TYR     BB  211   3.937   0.966   0.241
    1TYR    SC1  212   3.917   0.745   0.459
    1TYR    SC2  213   4.059   0.853   0.622
    1TYR    SC3  214   3.916   0.776   0.802
    2THR     BB  215   3.890   1.203   0.530
    2THR    SC1  216   3.870   1.398   0.361
    3TYR     BB  217   4.079   1.350   0.746
    3TYR    SC1  218   4.023   1.193   0.986
    3TYR    SC2  219   4.155   1.285   1.165
    3TYR    SC3  220   3.971   1.256   1.320
    1TYR     BB  221   1.766   7.300   6.083
    1TYR    SC1  222   1.811   7.218   5.786
    1TYR    SC2  223   1.649   7.040   5.781
    1TYR    SC3  224   1.585   7.100   5.555
    2THR     BB  225   1.401   7.266   5.997
    2THR    SC1  226   1.341   7.365   6.229
    3TYR     BB  227   1.182   7.029   5.992
    3TYR    SC1  228   1.159   6.979   5.706
    3TYR    SC2  229   0.998   6.802   5.676
    3TYR    SC3  230   0.906   6.915   5.482
    1TYR     BB  231   5.738   2.487   2.795
    1TYR    SC1  232   6.044   2.546   2.802
    1TYR    SC2  233   6.096   2.450   2.587
    1TYR    SC3  234   6.257   2.627   2.543
    2THR     BB  235   5.761   2.608   2.439
    2THR    SC1  236   5.503   2.598   2.424
    3TYR     BB  237   5.828   2.480   2.151
    3TYR    SC1  238   6.097   2.582   2.105
    3TYR    SC2  239   6.171   2.498   1.892
    3TYR    SC3  240   6.275   2.711   1.840
    1TYR     BB  241   1.780   0.882   2.031
    1TYR    SC1  242   1.895   0.712   1.797
    1TYR    SC2  243   1.787   0.832   1.619
    1TYR    SC3  244   1.985   0.809   1.479
    2THR     BB  245   1.864   1.175   1.809
    2THR    SC1  246   1.806   1.335   2.004
    3TYR     BB  247   1.721   1.339   1.572
    3TYR    SC1  248   1.864   1.239   1.339
    3TYR    SC2  249   1.773   1.348   1.145
    3TYR    SC3  250   1.995   1.371   1.049
    1TYR     BB  251   6.738   0.934   1.858
    1TYR    SC1  252   6.724   1.009   1.557
    1TYR    SC2  253   6.608   0.811   1.483
    1TYR    SC3  254   6.478   0.942   1.325
    2THR     BB  255   6.379   0.830   1.810
    2THR    SC1  256   6.359   0.793   2.065
    3TYR     BB  257   6.222   0.565   1.714
    3TYR    SC1  258   6.139   0.642   1.445
    3TYR    SC2  259   6.018   0.456   1.351
    3TYR    SC3  260   5.858   0.608   1.250
    1TYR     BB  261   5.358   1.302   7.706
    1TYR    SC1  262   5.573   1.086   7.642
    1TYR    SC2  263   5.672   1.199   7.454
    1TYR    SC3  264   5.893   1.124   7.521
    2THR     BB  265   5.641   1.545   7.651
    2THR    SC1  266   5.488   1.736   7.734
    3TYR     BB  267   5.774   1.699   7.400
    3TYR    SC1  268   6.020   1.547   7.364
    3TYR    SC2  269   6.138   1.644   7.178
    3TYR    SC3  270   6.350   1.616   7.294
    1TYR     BB  271   5.821   4.169   6.462
    1TYR    SC1  272   5.663   3.926   6.350
    1TYR    SC2  273   5.761   3.925   6.131
    1TYR    SC3  274   5.762   3.683   6.128
    2THR     BB  275   6.117   4.005   6.295
    2THR    SC1  276   6.271   4.180   6.407
    3TYR     BB  277   6.251   4.006   6.002
    3TYR    SC1  278   6.167   3.746   5.900
    3TYR    SC2  279   6.257   3.723   5.678
    3TYR    SC3  280   6.308   3.489   5.720
    1TYR     BB  281   0.477   7.135   6.561
    1TYR    SC1  282   0.378   6.843   6.604
    1TYR    SC2  283   0.297   6.872   6.829
    1TYR    SC3  284   0.108   6.727   6.784
    2THR     BB  285   0.150   7.229   6.724
    2THR    SC1  286   0.198   7.477   6.667
    3TYR     BB  287   0.041   7.271   7.024
    3TYR    SC1  288  -0.116   7.029   7.063
    3TYR    SC2  289  -0.209   7.038   7.285
    3TYR    SC3  290  -0.419   6.946   7.204
    1TYR     BB  291   3.910   4.615   6.675
    1TYR    SC1  292   3.687   4.611   6.892
    1TYR    SC2  293   3.739   4.824   6.991
    1TYR    SC3  294   3.503   4.872   7.022
    2THR     BB  295   3.803   4.973   6.626
    2THR    SC1  296   3.959   4.987   6.420
    3TYR     BB  297   3.875   5.259   6.756
    3TYR    SC1  298   3.638   5.308   6.919
    3TYR    SC2  299   3.669   5.520   7.029
    3TYR    SC3  300   3.435   5.576   6.993
    1TYR     BB  301   4.361   6.691   6.393
    1TYR    SC1  302   4.382   6.409   6.523
    1TYR    SC2  303   4.408   6.484   6.751
    1TYR    SC3  304   4.270   6.301   6.831
    2THR     BB  305   4.133   6.767   6.684
    2THR    SC1  306   4.076   6.994   6.575
    3TYR     BB  307   4.167   6.870   6.987
    3TYR    SC1  308   4.122   6.624   7.137
    3TYR    SC2  309   4.143   6.676   7.371
    3TYR    SC3  310   3.956   6.530   7.423
    1TYR     BB  311   5.826   5.705   2.614
    1TYR    SC1  312   5.999   5.512   2.786
    1TYR    SC2  313   6.000   5.645   2.987
    1TYR    SC3  314   5.983   5.444   3.123
    2THR     BB  315   5.614   5.731   2.925
    2THR    SC1  316   5.439   5.866   2.791
    3TYR     BB  317   5.612   5.909   3.194
    3TYR    SC1  318   5.713   5.719   3.390
    3TYR    SC2  319   5.720   5.831   3.603
    3TYR    SC3  320   5.641   5.631   3.715
    1TYR     BB  321   7.521   6.372   0.060
    1TYR    SC1  322   7.287   6.576   0.033
    1TYR    SC2  323   7.305   6.670   0.254
    1TYR    SC3  324   7.254   6.891   0.167
    2THR     BB  325   7.703   6.661   0.220
    2THR    SC1  326   7.919   6.518   0.221
    3TYR     BB  327   7.730   6.786   0.516
    3TYR    SC1  328   7.564   7.024   0.493
    3TYR    SC2  329   7.568   7.137   0.705
    3TYR    SC3  330   7.580   7.352   0.595
    1TYR     BB  331   4.863   5.737   0.404
    1TYR    SC1  332   5.168   5.755   0.343
    1TYR    SC2  333   5.240   5.593   0.506
    1TYR    SC3  334   5.408   5.509   0.353
    2THR     BB  335   4.925   5.365   0.411
    2THR    SC1  336   4.670   5.327   0.429
    3TYR     BB  337   5.019   5.147   0.629
    3TYR    SC1  338   5.294   5.098   0.546
    3TYR    SC2  339   5.387   4.935   0.697
    3TYR    SC3  340   5.501   4.825   0.513
    1TYR     BB  341   2.436   3.571   5.471
    1TYR    SC1  342   2.416   3.802   5.679
    1TYR    SC2  343   2.286   3.682   5.842
    1TYR    SC3  344   2.409   3.787   6.023
    2THR     BB  345   2.506   3.356   5.773
    2THR    SC1  346   2.560   3.159   5.614
    3TYR     BB  347   2.332   3.194   5.990
    3TYR    SC1  348   2.356   3.367   6.223
    3TYR    SC2  349   2.232   3.265   6.402
    3TYR    SC3  350   2.404   3.327   6.562
    1TYR     BB  351   6.694   5.622   7.935
    1TYR    SC1  352   6.914   5.708   7.732
    1TYR    SC2  353   6.859   5.549   7.560
    1TYR    SC3  354   6.905   5.714   7.388
    2THR     BB  355   6.471   5.613   7.631
    2THR    SC1  356   6.268   5.574   7.786
    3TYR     BB  357   6.394   5.400   7.402
    3TYR    SC1  358   6.544   5.504   7.174
    3TYR    SC2  359   6.502   5.359   6.987
    3TYR    SC3  360   6.489   5.549   6.838
    1TYR     BB  361   3.801   3.873   0.181
    1TYR    SC1  362   3.582   3.778   0.381
    1TYR    SC2  363   3.408   3.926   0.305
    1TYR    SC3  364   3.242   3.751   0.337
    2THR     BB  365   3.523   3.858  -0.072
    2THR    SC1  366   3.695   3.903  -0.259
    3TYR     BB  367   3.290   4.056  -0.177
    3TYR    SC1  368   3.055   3.940  -0.049
    3TYR    SC2  369   2.865   4.073  -0.113
    3TYR    SC3  370   2.729   3.873  -0.136
    1TYR     BB  371   6.779   3.844   2.513
    1TYR    SC1  372   7.002   3.927   2.313
    1TYR    SC2  373   7.125   4.068   2.464
    1TYR    SC3  374   7.335   3.990   2.370
    2THR     BB  375   7.064   3.800   2.755
    2THR    SC1  376   6.900   3.696   2.925
    3TYR     BB  377   7.229   3.986   2.960
    3TYR    SC1  378   7.479   4.024   2.815
    3TYR    SC2  379   7.622   4.162   2.950
    3TYR    SC3  380   7.815   4.028   2.890
    1TYR     BB  381   3.476   1.098   1.555
    1TYR    SC1  382   3.694   1.318   1.589
    1TYR    SC2  383   3.584   1.439   1.765
    1TYR    SC3  384   3.798   1.481   1.873
    2THR     BB  385   3.478   1.092   1.932
    2THR    SC1  386   3.322   0.885   1.926
    3TYR     BB  387   3.330   1.252   2.170
    3TYR    SC1  388   3.545   1.425   2.264
    3TYR    SC2  389   3.457   1.558   2.445
    3TYR    SC3  390   3.666   1.533   2.567
    1TYR     BB  391   1.219   5.809   0.449
    1TYR    SC1  392   1.022   5.864   0.684
    1TYR    SC2  393   0.855   5.979   0.555
    1TYR    SC3  394   0.678   5.874   0.684
    2THR     BB  395   0.906   5.714   0.260
    2THR    SC1  396   1.054   5.630   0.065
    3TYR     BB  397   0.683   5.865   0.085
    3TYR    SC1  398   0.458   5.870   0.271
    3TYR    SC2  399   0.275   5.980   0.161
    3TYR    SC3  400   0.118   5.821   0.254
    1TYR     BB  401   0.228   3.359   7.120
    1TYR    SC1  402   0.453   3.421   7.326
    1TYR    SC2  403   0.317   3.551   7.478
    1TYR    SC3  404   0.433   3.455   7.668
    2THR     BB  405   0.019   3.290   7.426
    2THR    SC1  406  -0.169   3.201   7.272
    3TYR     BB  407  -0.165   3.461   7.627
    3TYR    SC1  408   0.007   3.476   7.862
    3TYR    SC2  409  -0.111   3.603   8.030
    3TYR    SC3  410  -0.032   3.452   8.203
    1TYR     BB  411   4.726   4.667   4.636
    1TYR    SC1  412   4.961   4.554   4.805
    1TYR    SC2  413   4.827   4.433   4.964
    1TYR    SC3  414   4.989   4.252   4.968
    2THR     BB  415   4.586   4.318   4.666
    2THR    SC1  416   4.400   4.383   4.499
    3TYR     BB  417   4.405   4.156   4.877
    3TYR    SC1  418   4.604   3.988   5.006
    3TYR    SC2  419   4.490   3.854   5.172
    3TYR    SC3  420   4.626   3.662   5.114
    1TYR     BB  421   5.028   6.308   5.268
    1TYR    SC1  422   5.015   6.587   5.132
    1TYR    SC2  423   5.251   6.631   5.134
    1TYR    SC3  424   5.237   6.735   4.915
    2THR     BB  425   5.318   6.249   5.035
    2THR    SC1  426   5.324   6.002   5.111
    3TYR     BB  427   5.636   6.305   5.037
    3TYR    SC1  428   5.655   6.532   4.855
    3TYR    SC2  429   5.887   6.593   4.840
    3TYR    SC3  430   5.864   6.633   4.602
    1TYR     BB  431   0.575   2.005   3.604
    1TYR    SC1  432   0.752   2.193   3.430
    1TYR    SC2  433   0.880   2.020   3.322
    1TYR    SC3  434   0.878   2.144   3.113
    2THR     BB  435   0.547   1.802   3.288
    2THR    SC1  436   0.371   1.652   3.404
    3TYR     BB  437   0.715   1.568   3.143
    3TYR    SC1  438   0.843   1.716   2.926
    3TYR    SC2  439   0.977   1.560   2.801
    3TYR    SC3  440   0.910   1.665   2.593
    1TYR     BB  441   1.796   6.914   1.977
    1TYR    SC1  442   2.076   6.937   1.844
    1TYR    SC2  443   2.017   6.831   1.636
    1TYR    SC3  444   2.157   6.987   1.513
    2THR     BB  445   1.668   7.025   1.641
    2THR    SC1  446   1.430   7.045   1.742
    3TYR     BB  447   1.586   6.884   1.362
    3TYR    SC1  448   1.815   6.953   1.195
    3TYR    SC2  449   1.777   6.856   0.977
    3TYR    SC3  450   1.866   7.055   0.870
    1TYR     BB  451   1.611   7.587   3.023
    1TYR    SC1  452   1.919   7.556   3.000
    1TYR    SC2  453   1.926   7.511   2.763
    1TYR    SC3  454   2.130   7.641   2.741
    2THR     BB  455   1.646   7.790   2.707
    2THR    SC1  456   1.397   7.857   2.726
    3TYR     BB  457   1.653   7.732   2.390
    3TYR    SC1  458   1.936   7.764   2.332
    3TYR    SC2  459   1.967   7.724   2.097
    3TYR    SC3  460   2.128   7.906   2.084
    1TYR     BB  461   3.460   7.898   1.274
    1TYR    SC1  462   3.440   7.667   1.067
    1TYR    SC2  463   3.587   7.764   0.902
    1TYR    SC3  464   3.680   7.545   0.851
    2THR     BB  465   3.828   7.887   1.195
    2THR    SC1  466   3.870   8.055   1.388
    3TYR     BB  467   4.025   8.018   0.977
    3TYR    SC1  468   4.076   7.791   0.802
    3TYR    SC2  469   4.223   7.866   0.627
    3TYR    SC3  470   4.346   7.656   0.637
    1TYR     BB  471   1.585   3.808   0.740
    1TYR    SC1  472   1.673   3.613   0.966
    1TYR    SC2  473   1.744   3.434   0.823
    1TYR    SC3  474   1.931   3.385   0.970
    2THR     BB  475   1.907   3.702   0.575
    2THR    SC1  476   1.869   3.883   0.394
    3TYR     BB  477   2.003   3.463   0.381
    3TYR    SC1  478   2.150   3.294   0.567
    3TYR    SC2  479   2.234   3.105   0.443
    3TYR    SC3  480   2.444   3.114   0.564
    1TYR     BB  481   6.690   5.087   1.241
    1TYR    SC1  482   6.938   5.101   1.054
    1TYR    SC2  483   6.933   5.339   1.018
    1TYR    SC3  484   7.176   5.348   1.023
    2THR     BB  485   6.843   5.391   1.403
    2THR    SC1  486   6.664   5.377   1.589
    3TYR     BB  487   6.836   5.710   1.358
    3TYR    SC1  488   7.097   5.756   1.238
    3TYR    SC2  489   7.116   5.992   1.194
    3TYR    SC3  490   7.348   5.991   1.266
    1TYR     BB  491   1.564   4.705   4.459
    1TYR    SC1  492   1.660   4.928   4.654
    1TYR    SC2  493   1.510   4.875   4.835
    1TYR    SC3  494   1.683   4.924   4.998
    2THR     BB  495   1.572   4.487   4.766
    2THR    SC1  496   1.526   4.281   4.616
    3TYR     BB  497   1.371   4.413   5.007
    3TYR    SC1  498   1.486   4.566   5.227
    3TYR    SC2  499   1.351   4.527   5.422
    3TYR    SC3  500   1.549   4.517   5.562
    1TYR     BB  501   0.553   4.138   6.358
    1TYR    SC1  502   0.776   4.023   6.542
    1TYR    SC2  503   0.878   3.879   6.378
    1TYR    SC3  504   1.098   3.931   6.465
    2THR     BB  505   0.831   4.167   6.104
    2THR    SC1  506   0.669   4.296   5.948
    3TYR     BB  507   0.967   3.977   5.882
    3TYR    SC1  508   1.218   3.908   6.012
    3TYR    SC2  509   1.339   3.763   5.863
    3TYR    SC3  510   1.548   3.875   5.920
    1TYR     BB  511   4.163   5.719   1.223
    1TYR    SC1  512   4.312   5.484   1.363
    1TYR    SC2  513   4.473   5.618   1.482
    1TYR    SC3  514   4.458   5.470   1.674
    2THR     BB  515   4.184   5.883   1.562
    2THR    SC1  516   4.032   6.073   1.476
    3TYR     BB  517   4.397   6.064   1.722
    3TYR    SC1  518   4.506   5.871   1.911
    3TYR    SC2  519   4.671   5.985   2.045
    3TYR    SC3  520   4.596   5.868   2.243
    1TYR     BB  521   1.685   5.716   5.109
    1TYR    SC1  522   1.908   5.822   4.919
    1TYR    SC2  523   1.765   5.958   4.781
    1TYR    SC3  524   1.936   6.129   4.766
    2THR     BB  525   1.566   6.073   5.108
    2THR    SC1  526   1.396   6.013   5.293
    3TYR     BB  527   1.373   6.256   4.926
    3TYR    SC1  528   1.568   6.417   4.781
    3TYR    SC2  529   1.445   6.565   4.635
    3TYR    SC3  530   1.599   6.746   4.684
    1TYR     BB  531   6.741   4.052   0.899
    1TYR    SC1  532   6.919   4.080   0.645
    1TYR    SC2  533   7.122   3.996   0.743
    1TYR    SC3  534   7.178   3.881   0.536
    2THR     BB  535   6.909   3.716   0.934
    2THR    SC1  536   6.747   3.660   1.127
    3TYR     BB  537   7.180   3.602   1.067
    3TYR    SC1  538   7.344   3.557   0.830
    3TYR    SC2  539   7.556   3.470   0.905
    3TYR    SC3  540   7.562   3.314   0.719
    1TYR     BB  541   2.702   0.763   7.959
    1TYR    SC1  542   2.538   0.502   7.911
    1TYR    SC2  543   2.547   0.507   7.670
    1TYR    SC3  544   2.571   0.265   7.663
    2THR     BB  545   2.928   0.625   7.690
    2THR    SC1  546   3.095   0.816   7.739
    3TYR     BB  547   2.942   0.632   7.369
    3TYR    SC1  548   2.852   0.363   7.301
    3TYR    SC2  549   2.854   0.344   7.061
    3TYR    SC3  550   2.941   0.118   7.077
    1TYR     BB  551   6.754   7.439   7.065
    1TYR    SC1  552   6.484   7.547   7.177
    1TYR    SC2  553   6.477   7.408   7.374
    1TYR    SC3  554   6.385   7.592   7.504
    2THR     BB  555   6.870   7.466   7.423
    2THR    SC1  556   7.110   7.411   7.345
    3TYR     BB  557   6.864   7.281   7.686
    3TYR    SC1  558   6.654   7.409   7.842
    3TYR    SC2  559   6.630   7.286   8.047
    3TYR    SC3  560   6.601   7.493   8.171
    1TYR     BB  561   0.312   2.410   7.198
    1TYR    SC1  562   0.559   2.526   7.049
    1TYR    SC2  563   0.582   2.348   6.888
    1TYR    SC3  564   0.642   2.508   6.715
    2THR     BB  565   0.184   2.337   6.851
    2THR    SC1  566  -0.043   2.267   6.954
    3TYR     BB  567   0.212   2.099   6.636
    3TYR    SC1  568   0.396   2.217   6.443
    3TYR    SC2  569   0.433   2.054   6.269
    3TYR    SC3  570   0.427   2.229   6.101
    1TYR     BB  571   1.944   5.210   2.850
    1TYR    SC1  572   2.181   5.397   2.923
    1TYR    SC2  573   2.059   5.604   2.912
    1TYR    SC3  574   2.182   5.690   3.103
    2THR     BB  575   1.749   5.425   3.090
    2THR    SC1  576   1.550   5.262   3.069
    3TYR     BB  577   1.583   5.701   3.077
    3TYR    SC1  578   1.768   5.885   3.206
    3TYR    SC2  579   1.665   6.103   3.207
    3TYR    SC3  580   1.748   6.144   3.431
    1TYR     BB  581   1.273   0.546   3.374
    1TYR    SC1  582   1.575   0.485   3.419
    1TYR    SC2  583   1.584   0.555   3.649
    1TYR    SC3  584   1.736   0.372   3.701
    2THR     BB  585   1.229   0.383   3.711
    2THR    SC1  586   0.972   0.394   3.678
    3TYR     BB  587   1.239   0.476   4.020
    3TYR    SC1  588   1.495   0.367   4.104
    3TYR    SC2  589   1.526   0.425   4.335
    3TYR    SC3  590   1.621   0.205   4.380
    1TYR     BB  591   3.253  -0.029   4.306
    1TYR    SC1  592   3.107  -0.080   4.036
    1TYR    SC2  593   2.898   0.021   4.097
    1TYR    SC3  594   2.873   0.112   3.873
    2THR     BB  595   3.098   0.314   4.281
    2THR    SC1  596   3.238   0.387   4.485
    3TYR     BB  597   2.819   0.452   4.364
    3TYR    SC1  598   2.687   0.475   4.106
    3TYR    SC2  599   2.472   0.577   4.143
    3TYR    SC3  600   2.497   0.709   3.941
    1TYR     BB  601   2.213   4.227   3.315
    1TYR    SC1  602   2.228   4.436   3.545
    1TYR    SC2  603   2.339   4.296   3.705
    1TYR    SC3  604   2.472   4.483   3.783
    2THR     BB  605   2.569   4.151   3.412
    2THR    SC1  606   2.588   3.997   3.205
    3TYR     BB  607   2.720   3.961   3.624
    3TYR    SC1  608   2.804   4.155   3.825
    3TYR    SC2  609   2.921   4.035   3.997
    3TYR    SC3  610   3.084   4.214   4.015
    1TYR     BB  611   5.642   1.994   0.502
    1TYR    SC1  612   5.463   2.070   0.259
    1TYR    SC2  613   5.584   2.267   0.195
    1TYR    SC3  614   5.550   2.216  -0.040
    2THR     BB  615   5.927   2.075   0.269
    2THR    SC1  616   6.092   1.984   0.446
    3TYR     BB  617   6.092   2.339   0.184
    3TYR    SC1  618   5.982   2.391  -0.081
    3TYR    SC2  619   6.092   2.588  -0.167
    3TYR    SC3  620   6.104   2.488  -0.388
    1TYR     BB  621   5.372   5.877   6.756
    1TYR    SC1  622   5.538   5.646   6.630
    1TYR    SC2  623   5.697   5.785   6.515
    1TYR    SC3  624   5.876   5.628   6.566
    2THR     BB  625   5.710   6.026   6.833
    2THR    SC1  626   5.593   6.210   6.973
    3TYR     BB  627   5.923   6.214   6.682
    3TYR    SC1  628   6.128   6.020   6.609
    3TYR    SC2  629   6.302   6.139   6.492
    3TYR    SC3  630   6.472   6.008   6.606
    1TYR     BB  631   2.306   7.560   7.191
    1TYR    SC1  632   2.585   7.431   7.142
    1TYR    SC2  633   2.553   7.382   6.909
    1TYR    SC3  634   2.785   7.440   6.862
    2THR     BB  635   2.371   7.735   6.863
    2THR    SC1  636   2.159   7.877   6.902
    3TYR     BB  637   2.327   7.671   6.551
    3TYR    SC1  638   2.599   7.610   6.466
    3TYR    SC2  639   2.592   7.557   6.231
    3TYR    SC3  640   2.799   7.679   6.195
    1TYR     BB  641   4.743   3.586   1.008
    1TYR    SC1  642   4.532   3.624   0.782
    1TYR    SC2  643   4.577   3.856   0.739
    1TYR    SC3  644   4.545   3.821   0.501
    2THR     BB  645   4.968   3.782   0.778
    2THR    SC1  646   5.166   3.733   0.936
    3TYR     BB  647   5.032   4.093   0.720
    3TYR    SC1  648   4.892   4.134   0.468
    3TYR    SC2  649   4.926   4.363   0.403
    3TYR    SC3  650   4.953   4.297   0.171
    1TYR     BB  651   0.319   5.550   4.818
    1TYR    SC1  652   0.508   5.733   4.984
    1TYR    SC2  653   0.384   5.722   5.190
    1TYR    SC3  654   0.591   5.717   5.317
    2THR     BB  655   0.320   5.333   5.126
    2THR    SC1  656   0.191   5.152   4.995
    3TYR     BB  657   0.154   5.316   5.402
    3TYR    SC1  658   0.346   5.427   5.591
    3TYR    SC2  659   0.243   5.425   5.809
    3TYR    SC3  660   0.453   5.356   5.911
    1TYR     BB  661   0.418   0.369   5.250
    1TYR    SC1  662   0.114   0.347   5.314
    1TYR    SC2  663   0.138   0.261   5.538
    1TYR    SC3  664  -0.051   0.394   5.613
    2THR     BB  665   0.442   0.513   5.597
    2THR    SC1  666   0.690   0.571   5.552
    3TYR     BB  667   0.477   0.399   5.897
    3TYR    SC1  668   0.207   0.432   6.002
    3TYR    SC2  669   0.208   0.352   6.229
    3TYR    SC3  670   0.064   0.536   6.298
    1TYR     BB  671   1.001   3.997   2.848
    1TYR    SC1  672   1.262   4.009   2.678
    1TYR    SC2  673   1.155   4.041   2.464
    1TYR    SC3  674   1.332   4.193   2.396
    2THR     BB  675   0.896   4.291   2.636
    2THR    SC1  676   0.688   4.320   2.787
    3TYR     BB  677   0.751   4.336   2.352
    3TYR    SC1  678   0.977   4.415   2.185
    3TYR    SC2  679   0.893   4.454   1.963
    3TYR    SC3  680   1.038   4.648   1.939
    1TYR     BB  681   4.187   1.764   6.812
    1TYR    SC1  682   4.319   1.849   6.543
    1TYR    SC2  683   4.500   1.976   6.639
    1TYR    SC3  684   4.651   1.895   6.467
    2THR     BB  685   4.542   1.694   6.920
    2THR    SC1  686   4.451   1.587   7.137
    3TYR     BB  687   4.784   1.861   7.050
    3TYR    SC1  688   4.959   1.897   6.820
    3TYR    SC2  689   5.151   2.022   6.894
    3TYR    SC3  690   5.297   1.884   6.757
    1TYR     BB  691   3.099   3.169   7.055
    1TYR    SC1  692   3.344   3.050   7.205
    1TYR    SC2  693   3.325   3.186   7.403
    1TYR    SC3  694   3.390   2.998   7.542
    2THR     BB  695   2.928   3.141   7.390
    2THR    SC1  696   2.704   3.206   7.277
    3TYR     BB  697   2.899   3.322   7.654
    3TYR    SC1  698   3.078   3.184   7.838
    3TYR    SC2  699   3.074   3.303   8.047
    3TYR    SC3  700   3.077   3.094   8.170
    1TYR     BB  701   1.098   3.068   7.799
    1TYR    SC1  702   1.171   2.767   7.770
    1TYR    SC2  703   1.350   2.796   7.611
    1TYR    SC3  704   1.478   2.620   7.718
    2THR     BB  705   1.471   3.118   7.814
    2THR    SC1  706   1.431   3.366   7.873
    3TYR     BB  707   1.711   3.159   7.603
    3TYR    SC1  708   1.839   2.898   7.610
    3TYR    SC2  709   2.025   2.904   7.457
    3TYR    SC3  710   2.161   2.775   7.612
    1TYR     BB  711   2.635   7.310   3.137
    1TYR    SC1  712   2.761   7.037   3.060
    1TYR    SC2  713   2.801   7.088   2.828
    1TYR    SC3  714   3.011   6.966   2.834
    2THR     BB  715   2.918   7.455   2.934
    2THR    SC1  716   2.850   7.691   3.015
    3TYR     BB  717   2.972   7.527   2.625
    3TYR    SC1  718   3.149   7.309   2.546
    3TYR    SC2  719   3.204   7.342   2.314
    3TYR    SC3  720   3.434   7.274   2.356
    1TYR     BB  721   5.261   2.765   8.082
    1TYR    SC1  722   4.998   2.928   8.115
    1TYR    SC2  723   4.869   2.808   7.951
    1TYR    SC3  724   4.671   2.824   8.090
    2THR     BB  725   5.031   2.467   8.082
    2THR    SC1  726   5.238   2.312   8.089
    3TYR     BB  727   4.859   2.303   7.863
    3TYR    SC1  728   4.589   2.395   7.922
    3TYR    SC2  729   4.440   2.284   7.768
    3TYR    SC3  730   4.276   2.254   7.944
    1TYR     BB  731   6.870   3.172   6.445
    1TYR    SC1  732   7.175   3.181   6.384
    1TYR    SC2  733   7.165   3.072   6.170
    1TYR    SC3  734   7.338   3.219   6.084
    2THR     BB  735   6.834   3.279   6.085
    2THR    SC1  736   6.581   3.311   6.123
    3TYR     BB  737   6.818   3.134   5.797
    3TYR    SC1  738   7.084   3.189   5.691
    3TYR    SC2  739   7.097   3.089   5.473
    3TYR    SC3  740   7.219   3.281   5.388
    1TYR     BB  741   7.441   4.865   2.443
    1TYR    SC1  742   7.292   4.617   2.328
    1TYR    SC2  743   7.074   4.717   2.318
    1TYR    SC3  744   7.028   4.602   2.109
    2THR     BB  745   7.240   5.056   2.187
    2THR    SC1  746   7.377   5.268   2.244
    3TYR     BB  747   6.948   5.193   2.173
    3TYR    SC1  748   6.804   5.001   2.007
    3TYR    SC2  749   6.579   5.083   1.981
    3TYR    SC3  750   6.577   5.014   1.749
    1TYR     BB  751   2.551   5.838   7.522
    1TYR    SC1  752   2.316   5.686   7.384
    1TYR    SC2  753   2.424   5.653   7.172
    1TYR    SC3  754   2.325   5.432   7.152
    2THR     BB  755   2.765   5.572   7.362
    2THR    SC1  756   2.968   5.662   7.495
    3TYR     BB  757   2.912   5.527   7.079
    3TYR    SC1  758   2.737   5.330   6.954
    3TYR    SC2  759   2.828   5.280   6.737
    3TYR    SC3  760   2.775   5.045   6.766
    1TYR     BB  761  -0.067   6.971   4.371
    1TYR    SC1  762   0.143   7.191   4.303
    1TYR    SC2  763   0.183   7.263   4.529
    1TYR    SC3  764   0.420   7.292   4.481
    2THR     BB  765   0.172   6.882   4.648
    2THR    SC1  766   0.029   6.673   4.700
    3TYR     BB  767   0.226   6.976   4.952
    3TYR    SC1  768   0.467   7.136   4.920
    3TYR    SC2  769   0.528   7.219   5.138
    3TYR    SC3  770   0.763   7.180   5.090
    1TYR     BB  771   7.420   0.926   6.785
    1TYR    SC1  772   7.468   1.161   6.586
    1TYR    SC2  773   7.549   1.320   6.749
    1TYR    SC3  774   7.712   1.405   6.590
    2THR     BB  775   7.755   1.026   6.925
    2THR    SC1  776   7.751   0.816   7.076
    3TYR     BB  777   7.865   1.236   7.144
    3TYR    SC1  778   7.979   1.443   6.973
    3TYR    SC2  779   8.068   1.614   7.116
    3TYR    SC3  780   8.261   1.639   6.971
    1TYR     BB  781   7.210   0.353   5.738
    1TYR    SC1  782   7.178   0.422   5.436
    1TYR    SC2  783   7.205   0.660   5.458
    1TYR    SC3  784   7.330   0.668   5.250
    2THR     BB  785   7.497   0.597   5.724
    2THR    SC1  786   7.562   0.529   5.964
    3TYR     BB  787   7.536   0.916   5.755
    3TYR    SC1  788   7.575   0.996   5.478
    3TYR    SC2  789   7.607   1.235   5.476
    3TYR    SC3  790   7.779   1.213   5.306
    1TYR     BB  791   6.702   5.420   4.678
    1TYR    SC1  792   6.984   5.370   4.555
    1TYR    SC2  793   6.986   5.131   4.585
    1TYR    SC3  794   7.098   5.102   4.372
    2THR     BB  795   6.602   5.118   4.476
    2THR    SC1  796   6.355   5.163   4.539
    3TYR     BB  797   6.602   4.798   4.515
    3TYR    SC1  798   6.828   4.720   4.349
    3TYR    SC2  799   6.848   4.481   4.362
    3TYR    SC3  800   6.899   4.468   4.125
    1TYR     BB  801   4.176   2.839   7.361
    1TYR    SC1  802   3.886   2.799   7.256
    1TYR    SC2  803   3.849   3.026   7.185
    1TYR    SC3  804   3.726   2.949   6.991
    2THR     BB  805   4.223   3.037   7.043
    2THR    SC1  806   4.476   3.053   7.095
    3TYR     BB  807   4.177   3.341   6.948
    3TYR    SC1  808   3.936   3.314   6.786
    3TYR    SC2  809   3.880   3.533   6.702
    3TYR    SC3  810   3.819   3.438   6.487
    1TYR     BB  811   7.345   7.826   2.195
    1TYR    SC1  812   7.121   7.636   2.093
    1TYR    SC2  813   7.006   7.797   1.956
    1TYR    SC3  814   6.962   7.627   1.788
    2THR     BB  815   7.359   7.939   1.836
    2THR    SC1  816   7.569   8.079   1.892
    3TYR     BB  817   7.208   8.156   1.651
    3TYR    SC1  818   7.033   7.984   1.494
    3TYR    SC2  819   6.906   8.126   1.346
    3TYR    SC3  820   6.929   7.964   1.166
    1TYR     BB  821   2.627   6.818   6.389
    1TYR    SC1  822   2.702   7.090   6.520
    1TYR    SC2  823   2.817   7.183   6.330
    1TYR    SC3  824   2.725   7.403   6.378
    2THR     BB  825   2.535   7.030   6.091
    2THR    SC1  826   2.436   6.820   5.977
    3TYR     BB  827   2.687   7.154   5.835
    3TYR    SC1  828   2.710   7.434   5.911
    3TYR    SC2  829   2.822   7.549   5.732
    3TYR    SC3  830   2.674   7.740   5.757
    1TYR     BB  831   0.199   1.998   0.828
    1TYR    SC1  832   0.079   2.209   0.633
    1TYR    SC2  833   0.202   2.141   0.438
    1TYR    SC3  834   0.008   2.182   0.297
    2THR     BB  835   0.147   1.759   0.541
    2THR    SC1  836   0.212   1.564   0.698
    3TYR     BB  837   0.312   1.665   0.281
    3TYR    SC1  838   0.169   1.805   0.069
    3TYR    SC2  839   0.276   1.750  -0.139
    3TYR    SC3  840   0.060   1.734  -0.250
    1TYR     BB  841   7.726   1.080   2.222
    1TYR    SC1  842   7.762   0.847   2.019
    1TYR    SC2  843   7.700   0.970   1.822
    1TYR    SC3  844   7.870   0.855   1.693
    2THR     BB  845   7.904   1.285   1.960
    2THR    SC1  846   7.915   1.482   2.127
    3TYR     BB  847   7.823   1.452   1.697
    3TYR    SC1  848   7.912   1.273   1.486
    3TYR    SC2  849   7.860   1.379   1.275
    3TYR    SC3  850   8.072   1.303   1.182
    1TYR     BB  851   1.778   5.614   7.471
    1TYR    SC1  852   1.754   5.838   7.257
    1TYR    SC2  853   1.548   5.762   7.159
    1TYR    SC3  854   1.474   5.992   7.131
    2THR     BB  855   1.410   5.679   7.525
    2THR    SC1  856   1.416   5.520   7.729
    3TYR     BB  857   1.133   5.577   7.396
    3TYR    SC1  858   1.056   5.808   7.236
    3TYR    SC2  859   0.848   5.754   7.128
    3TYR    SC3  860   0.766   5.980   7.167
    1TYR     BB  861   7.392   6.359   6.679
    1TYR    SC1  862   7.083   6.395   6.678
    1TYR    SC2  863   7.055   6.385   6.439
    1TYR    SC3  864   6.848   6.260   6.466
    2THR     BB  865   7.324   6.090   6.424
    2THR    SC1  866   7.573   6.021   6.436
    3TYR     BB  867   7.288   6.074   6.104
    3TYR    SC1  868   7.000   6.040   6.081
    3TYR    SC2  869   6.947   6.026   5.846
    3TYR    SC3  870   6.784   5.852   5.891
    1TYR     BB  871   3.152   2.435   1.758
    1TYR    SC1  872   3.191   2.207   1.966
    1TYR    SC2  873   3.293   2.341   2.138
    1TYR    SC3  874   3.174   2.217   2.309
    2THR     BB  875   3.033   2.633   2.056
    2THR    SC1  876   2.960   2.823   1.896
    3TYR     BB  877   3.167   2.816   2.286
    3TYR    SC1  878   3.153   2.637   2.516
    3TYR    SC2  879   3.250   2.753   2.703
    3TYR    SC3  880   3.078   2.664   2.850
    1TYR     BB  881   2.366   6.253   3.556
    1TYR    SC1  882   2.608   6.180   3.737
    1TYR    SC2  883   2.484   6.153   3.942
    1TYR    SC3  884   2.624   5.965   4.006
    2THR     BB  885   2.194   5.971   3.737
    2THR    SC1  886   1.994   5.993   3.574
    3TYR     BB  887   2.026   5.934   4.009
    3TYR    SC1  888   2.221   5.801   4.179
    3TYR    SC2  889   2.117   5.762   4.393
    3TYR    SC3  890   2.221   5.543   4.408
    1TYR     BB  891   0.759   5.720   2.910
    1TYR    SC1  892   0.701   6.026   2.921
    1TYR    SC2  893   0.477   6.015   2.834
    1TYR    SC3  894   0.406   6.191   2.986
    2THR     BB  895   0.412   5.688   3.053
    2THR    SC1  896   0.453   5.434   3.084
    3TYR     BB  897   0.111   5.671   2.938
    3TYR    SC1  898   0.012   5.938   3.000
    3TYR    SC2  899  -0.216   5.950   2.922
    3TYR    SC3  900  -0.280   6.075   3.120
    1TYR     BB  901   2.225   3.109   3.777
    1TYR    SC1  902   1.967   3.076   3.948
    1TYR    SC2  903   2.002   2.846   4.008
    1TYR    SC3  904   1.914   2.887   4.231
    2THR     BB  905   2.391   2.922   4.059
    2THR    SC1  906   2.620   2.968   3.950
    3TYR     BB  907   2.440   2.614   4.140
    3TYR    SC1  908   2.245   2.579   4.353
    3TYR    SC2  909   2.263   2.352   4.431
    3TYR    SC3  910   2.235   2.425   4.661
    1TYR     BB  911   6.122   7.029   1.788
    1TYR    SC1  912   6.327   6.941   2.005
    1TYR    SC2  913   6.380   6.727   1.910
    1TYR    SC3  914   6.613   6.752   1.973
    2THR     BB  915   6.378   6.893   1.546
    2THR    SC1  916   6.238   6.989   1.351
    3TYR     BB  917   6.448   6.607   1.416
    3TYR    SC1  918   6.686   6.533   1.566
    3TYR    SC2  919   6.759   6.318   1.485
    3TYR    SC3  920   6.991   6.388   1.498
    1TYR     BB  921   4.079   5.118   0.407
    1TYR    SC1  922   4.109   5.164   0.101
    1TYR    SC2  923   4.278   4.997   0.063
    1TYR    SC3  924   4.176   4.938  -0.149
    2THR     BB  925   4.087   4.752   0.314
    2THR    SC1  926   4.028   4.693   0.559
    3TYR     BB  927   4.312   4.527   0.265
    3TYR    SC1  928   4.310   4.506  -0.025
    3TYR    SC2  929   4.474   4.341  -0.087
    3TYR    SC3  930   4.325   4.254  -0.259
    1TYR     BB  931   2.799   6.459   4.725
    1TYR    SC1  932   3.036   6.654   4.774
    1TYR    SC2  933   2.974   6.817   4.607
    1TYR    SC3  934   3.045   6.998   4.753
    2THR     BB  935   2.591   6.773   4.714
    2THR    SC1  936   2.378   6.628   4.707
    3TYR     BB  937   2.505   6.990   4.492
    3TYR    SC1  938   2.676   7.216   4.563
    3TYR    SC2  939   2.629   7.394   4.408
    3TYR    SC3  940   2.643   7.558   4.587
    1TYR     BB  941   4.991   7.745   1.150
    1TYR    SC1  942   5.284   7.706   1.246
    1TYR    SC2  943   5.248   7.499   1.364
    1TYR    SC3  944   5.464   7.416   1.289
    2THR     BB  945   5.009   7.377   1.067
    2THR    SC1  946   4.779   7.396   0.951
    3TYR     BB  947   4.960   7.099   1.222
    3TYR    SC1  948   5.233   7.009   1.266
    3TYR    SC2  949   5.222   6.799   1.383
    3TYR    SC3  950   5.405   6.711   1.249
    1TYR     BB  951   6.582   2.954   3.062
    1TYR    SC1  952   6.805   2.899   3.273
    1TYR    SC2  953   6.754   3.085   3.417
    1TYR    SC3  954   6.802   2.949   3.613
    2THR     BB  955   6.364   3.012   3.364
    2THR    SC1  956   6.159   3.027   3.208
    3TYR     BB  957   6.292   3.260   3.558
    3TYR    SC1  958   6.445   3.192   3.796
    3TYR    SC2  959   6.407   3.366   3.958
    3TYR    SC3  960   6.397   3.201   4.137
    1TYR     BB  961   4.188   5.600   6.076
    1TYR    SC1  962   4.363   5.838   5.980
    1TYR    SC2  963   4.325   5.809   5.744
    1TYR    SC3  964   4.318   6.049   5.712
    2THR     BB  965   3.941   5.727   5.822
    2THR    SC1  966   3.768   5.557   5.911
    3TYR     BB  967   3.887   5.687   5.507
    3TYR    SC1  968   3.988   5.938   5.399
    3TYR    SC2  969   3.958   5.931   5.160
    3TYR    SC3  970   3.891   6.165   5.159
    1TYR     BB  971   5.139   3.492   2.903
    1TYR    SC1  972   5.057   3.418   3.194
    1TYR    SC2  973   4.909   3.236   3.136
    1TYR    SC3  974   4.985   3.110   3.329
    2THR     BB  975   5.170   3.119   2.857
    2THR    SC1  976   5.272   3.160   2.623
    3TYR     BB  977   4.974   2.875   2.778
    3TYR    SC1  978   4.935   2.747   3.037
    3TYR    SC2  979   4.789   2.559   3.003
    3TYR    SC3  980   4.921   2.425   3.158
    1TYR     BB  981   4.050   6.320   0.378
    1TYR    SC1  982   4.300   6.300   0.562
    1TYR    SC2  983   4.222   6.451   0.733
    1TYR    SC3  984   4.321   6.312   0.905
    2THR     BB  985   3.857   6.290   0.701
    2THR    SC1  986   3.639   6.270   0.564
    3TYR     BB  987   3.750   6.491   0.929
    3TYR    SC1  988   3.939   6.439   1.145
    3TYR    SC2  989   3.878   6.580   1.330
    3TYR    SC3  990   3.925   6.400   1.486
    1TYR     BB  991  -0.291   5.215   7.000
    1TYR    SC1  992  -0.137   5.479   6.941
    1TYR    SC2  993   0.085   5.389   6.966
    1TYR    SC3  994   0.164   5.527   6.782
    2THR     BB  995  -0.032   5.059   6.774
    2THR    SC1  996  -0.164   4.836   6.783
    3TYR     BB  997   0.265   4.936   6.807
    3TYR    SC1  998   0.427   5.149   6.692
    3TYR    SC2  999   0.657   5.080   6.705
    3TYR    SC3 1000   0.701   5.172   6.485
    4W        W 1001   0.349   1.633   2.100
    5W        W 1002   5.106   7.621   1.686
    6W        W 1003   3.772   4.299   0.403
    7W        W 1004   2.537   3.319   3.106
    8W        W 1005   3.102   5.951   3.455
    9W        W 1006   3.373   7.676   5.025
   10W        W 1007   3.635   6.731   2.684
   11W        W 1008   3.112   3.406   6.189
   12W        W 1009   3.682   2.669   5.460
   13W        W 1010   6.617   2.508   3.357
   14W        W 1011   2.972   7.428   4.929
   15W        W 1012   7.158   3.321   3.628
   16W        W 1013   6.117   6.459   3.240
   17W        W 1014   7.256   3.126   1.905
   18W        W 1015   4.479   7.132   6.676
   19W        W 1016   3.548   2.037   0.913
   20W        W 1017   4.614   4.267   3.949
   21W        W 1018   4.204   3.886   1.026
   22W        W 1019   3.255   5.763   3.879
   23W        W 1020   5.594   4.501   0.154
   24W        W 1021   0.331   3.089   3.924
   25W        W 1022   1.975   6.238   5.081
   26W        W 1023   5.364   2.299   5.526
   27W        W 1024   2.937   0.037   5.008
   28W        W 1025   1.453   4.276   3.805
   29W        W 1026   0.429   6.932   3.776
   30W        W 1027   2.769   0.900   5.002
   31W        W 1028   1.095   7.587   5.519
   32W        W 1029   7.929   1.101   3.258
   33W        W 1030   0.180   4.842   4.244
   34W        W 1031   7.654   6.841   5.972
   35W        W 1032   3.181   1.827   1.211
   36W        W 1033   4.354   0.291   4.467
   37W        W 1034   3.545   3.352   0.603
   38W        W 1035   1.440   7.637   5.136
   39W        W 1036   7.517   7.177   2.175
   40W        W 1037   7.851   2.797   3.902
   41W        W 1038   4.599   2.116   6.133
   42W        W 1039   4.568   6.469   2.461
   43W        W 1040   5.681   4.462   4.970
   44W        W 1041   5.676   1.433   2.966
   45W        W 1042   4.819   6.067   6.364
   46W        W 1043   4.639   0.850   7.747
   47W        W 1044   1.119   5.630   1.968
   48W        W 1045   2.617   7.080   0.519
   49W        W 1046   1.180   3.272   4.125
   50W        W 1047   6.733   1.195   3.868
   51W        W 1048   1.602   2.575   3.865
   52W        W 1049   3.987   7.321   3.032
   53W        W 1050   1.242   7.332   1.453
   54W        W 1051   1.855   6.457   3.898
   55W        W 1052   5.253   5.959   0.677
   56W        W 1053   4.050   5.464   2.603
   57W        W 1054   2.220   4.370   2.646
   58W        W 1055   6.449   1.641   4.888
   59W        W 1056   1.261   6.947   0.428
   60W        W 1057   2.307   7.508   1.384
   61W        W 1058   3.367   3.532   4.367
   62W        W 1059   3.230   4.191   0.394
   63W        W 1060   4.803   0.282   2.107
   64W        W 1061   3.462   3.638   5.146
   65W        W 1062   6.619   6.519   2.671
   66W        W 1063   7.309   0.266   0.194
   67W        W 1064   6.292   0.807   0.486
   68W        W 1065   5.880   5.100   7.157
   69W        W 1066   2.098   2.272   1.668
   70W        W 1067   6.438   4.924   7.950
   71W        W 1068   0.024   0.654   7.928
   72W        W 1069   6.084   2.032   2.232
   73W        W 1070   5.349   6.095   3.993
   74W        W 1071   1.816   2.172   7.150
   75W        W 1072   5.173   2.658   1.706
   76W        W 1073   6.188   7.690   0.733
   77W        W 1074   1.268   4.458   2.892
   78W        W 1075   7.814   7.422   5.045
   79W        W 1076   0.819   0.266   0.956
   80W        W 1077   0.750   1.601   4.399
   81W        W 1078   1.797   0.656   7.022
   82W        W 1079   4.102   4.177   4.143
   83W        W 1080   2.391   5.181   5.671
   84W        W 1081   0.259   7.046   0.824
   85W        W 1082   5.650   7.086   2.695
   86W        W 1083   6.056   5.766   5.520
   87W        W 1084   5.269   3.839   4.784
   88W        W 1085   7.915   3.693   5.877
   89W        W 1086   5.241   5.224   4.271
   90W        W 1087   2.032   0.198   0.976
   91W        W 1088   5.922   4.214   1.251
   92W        W 1089   2.383   2.228   2.244
   93W        W 1090   6.591   0.284   2.179
   94W        W 1091   0.546   4.305   3.982
   95W        W 1092   2.239   4.351   6.496
   96W        W 1093   2.076   4.846   5.023
   97W        W 1094   0.275   5.572   1.494
   98W        W 1095   3.515   4.667   4.942
   99W        W 1096   0.394   3.751   3.247
  100W        W 1097   2.626   4.308   5.785
  101W        W 1098   7.728   0.116   7.149
  102W        W 1099   2.906   4.490   0.247
  103W        W 1100   3.678   0.463   4.635
  104W        W 1101   3.544   5.250   4.852
  105W        W 1102   7.724   7.128   1.245
  106W        W 1103   4.011   0.806   7.564
  107W        W 1104   0.266   3.307   6.067
  108W        W 1105   0.569   2.820   0.459
  109W        W 1106   1.384   0.021   3.146
  110W        W 1107   0.853   7.400   1.141
  111W        W 1108   2.052   0.513   6.055
  112W        W 1109   3.922   2.298   4.099
  113W        W 1110   5.561   0.088   6.628
  114W        W 1111   0.770   0.423   0.434
  115W        W 1112   2.607   7.020   6.969
  116W        W 1113   2.810   7.885   0.487
  117W        W 1114   3.742   4.648   2.876
  118W        W 1115   3.497   4.702   7.377
  119W        W 1116   2.552   4.984   3.352
  120W        W 1117   3.990   4.941   5.149
  121W        W 1118   5.907   7.058   7.581
  122W        W 1119   4.262   7.625   6.543
  123W        W 1120   4.190   2.869   5.895
  124W        W 1121   6.424   7.762   5.954
  125W        W 1122   2.332   2.230   1.251
  126W        W 1123   6.511   6.696   6.796
  127W        W 1124   0.846   5.585   3.603
  128W        W 1125   4.572   5.569   2.581
  129W        W 1126   3.491   7.120   0.669
  130W        W 1127   3.830   6.778   4.809
  131W        W 1128   4.149   3.775   0.503
  132W        W 1129   4.457   1.760   0.882
  133W        W 1130   1.068   1.917   5.980
  134W        W 1131   5.990   6.957   3.045
  135W        W 1132   3.216   4.376   2.811
  136W        W 1133   0.845   5.393   2.613
  137W        W 1134   2.615   3.713   1.550
  138W        W 1135   3.555   4.534   2.444
  139W        W 1136   4.290   5.252   2.235
  140W        W 1137   2.818   0.909   4.513
  141W        W 1138   4.900   2.969   1.462
  142W        W 1139   4.043   3.164   1.239
  143W        W 1140   2.314   6.966   3.819
  144W        W 1141   5.000   7.333   7.344
  145W        W 1142   3.631   5.801   0.429
  146W        W 1143   6.190   6.168   2.866
  147W        W 1144   0.307   4.777   6.065
  148W        W 1145   0.738   4.462   0.887
  149W        W 1146   0.049   0.664   0.817
  150W        W 1147   0.564   4.822   1.825
  151W        W 1148   4.805   5.036   6.253
  152W        W 1149   3.710   7.655   3.799
  153W        W 1150   7.245   2.690   7.612
  154W        W 1151   4.274   3.116   2.080
  155W        W 1152   5.786   5.809   0.667
  156W        W 1153   0.612   1.030   7.085
  157W        W 1154   0.018   3.626   5.211
  158W        W 1155   7.280   1.793   5.959
  159W        W 1156   2.590   4.619   1.098
  160W        W 1157   0.505   5.802   6.467
  161W        W 1158   7.009   0.626   1.518
  162W        W 1159   1.273   0.657   6.567
  163W        W 1160   7.214   5.267   4.884
  164W        W 1161   0.325   6.638   1.251
  165W        W 1162   4.013   7.430   1.986
  166W        W 1163   6.418   3.571   0.115
  167W        W 1164   1.334   5.273   7.004
  168W        W 1165   5.923   0.865   0.157
  169W        W 1166   2.861   6.097   1.457
  170W        W 1167   2.192   5.954   2.613
  171W        W 1168   7.281   6.851   6.945
  172W        W 1169   3.774   1.376   4.335
  173W        W 1170   3.628   3.244   0.059
  174W        W 1171   0.347   7.146   3.114
  175W        W 1172   3.678   3.672   0.904
  176W        W 1173   7.741   0.449   0.390
  177W        W 1174   1.469   6.671   5.382
  178W        W 1175   2.608   7.013   1.645
  179W        W 1176   6.121   1.236   7.826
  180W        W 1177   7.235   4.956   6.943
  181W        W 1178   3.061   4.133   3.268
  182W        W 1179   3.865   0.144   3.816
  183W        W 1180   7.603   5.308   4.528
  184W        W 1181   5.208   1.841   7.851
  185W        W 1182   4.545   3.698   6.398
  186W        W 1183   3.100   4.999   4.788
  187W        W 1184   2.201   3.642   2.003
  188W        W 1185   3.677   4.566   4.058
  189W        W 1186   3.060   1.377   1.006
  190W        W 1187   1.439   3.755   2.342
  191W        W 1188   6.225   4.142   0.710
  192W        W 1189   7.406   4.118   1.879
  193W        W 1190   4.317   0.499   1.908
  194W        W 1191   1.345   2.618   2.437
  195W        W 1192   0.190   2.337   5.226
  196W        W 1193   2.368   0.020   4.519
  197W        W 1194   2.731   6.631   0.322
  198W        W 1195   0.428   1.998   1.685
  199W        W 1196   5.736   6.311   2.823
  200W        W 1197   1.161   0.086   5.427
  201W        W 1198   7.071   3.024   0.035
  202W        W 1199   5.973   2.274   4.878
  203W        W 1200   3.485   4.051   4.160
  204W        W 1201   2.242   4.833   0.719
  205W        W 1202   5.497   6.915   4.538
  206W        W 1203   2.980   2.287   7.647
  207W        W 1204   0.298   4.821   0.245
  208W        W 1205   3.681   2.474   1.733
  209W        W 1206   1.186   3.504   2.720
  210W        W 1207   3.843   3.473   5.560
  211W        W 1208   2.179   5.064   7.217
  212W        W 1209   0.068   0.328   2.342
  213W        W 1210   5.498   6.883   4.043
  214W        W 1211   6.524   1.236   6.236
  215W        W 1212   5.849   0.071   4.560
  216W        W 1213   7.408   6.166   4.959
  217W        W 1214   5.832   7.786   6.897
  218W        W 1215   0.698   6.968   1.731
  219W        W 1216   0.445   4.265   0.421
  220W        W 1217   2.499   6.618   5.107
  221W        W 1218   0.907   7.773   0.823
  222W        W 1219   0.171   7.871   4.160
  223W        W 1220   0.862   3.544   6.816
  224W        W 1221   3.565   0.598   0.972
  225W        W 1222   7.556   5.320   3.163
  226W        W 1223   7.566   2.429   7.824
  227W        W 1224   3.559   1.697   5.985
  228W        W 1225   1.325   5.009   3.067
  229W        W 1226   3.618   0.917   3.868
  230W        W 1227   1.347   4.575   1.821
  231W        W 1228   0.626   1.066   4.390
  232W        W 1229   6.058   3.145   0.224
  233W        W 1230   1.682   5.368   1.491
  234W        W 1231   3.664   4.151   3.681
  235W        W 1232   2.867   2.023   2.130
  236W        W 1233   3.002   6.463   5.114
  237W        W 1234   7.841   5.773   4.474
  238W        W 1235   6.988   1.672   0.535
  239W        W 1236   2.995   1.542   6.545
  240W        W 1237   5.791   3.202   6.485
  241W        W 1238   1.768   4.770   0.877
  242W        W 1239   4.800   6.174   2.801
  243W        W 1240   0.995   2.283   0.036
  244W        W 1241   1.393   3.615   0.220
  245W        W 1242   2.434   5.388   4.233
  246W        W 1243   2.627   0.058   3.162
  247W        W 1244   6.572   3.457   4.822
  248W        W 1245   1.257   2.988   3.634
  249W        W 1246   1.209   3.848   3.757
  250W        W 1247   1.171   5.164   0.345
  251W        W 1248   6.131   1.084   5.860
  252W        W 1249   6.559   4.297   3.034
  253W        W 1250   7.497   7.503   2.703
  254W        W 1251   0.845   0.004   1.893
  255W        W 1252   3.685   4.593   1.142
  256W        W 1253   4.763   6.233   1.425
  257W        W 1254   1.429   1.504   5.383
  258W        W 1255   3.548   0.353   4.147
  259W        W 1256   2.900   7.568   1.425
  260W        W 1257   1.814   4.223   0.816
  261W        W 1258   2.405   3.182   5.125
  262W        W 1259   1.022   4.864   2.682
  263W        W 1260   2.301   1.283   3.573
  264W        W 1261   5.922   4.946   4.852
  265W        W 1262   5.649   3.354   2.642
  266W        W 1263   3.528   6.732   6.577
  267W        W 1264   5.659   4.976   2.782
  268W        W 1265   5.314   0.911   3.796
  269W        W 1266   5.943   4.663   6.881
  270W        W 1267   1.579   5.387   0.174
  271W        W 1268   0.395   0.226   3.592
  272W        W 1269   0.846   4.409   1.617
  273W        W 1270   7.103   5.197   3.607
  274W        W 1271   7.672   6.207   4.515
  275W        W 1272   4.218   6.098   3.471
  276W        W 1273   5.229   4.522   7.471
  277W        W 1274   1.375   3.430   1.164
  278W        W 1275   1.671   4.157   5.560
  279W        W 1276   7.044   7.394   2.370
  280W        W 1277   1.383   5.875   3.643
  281W        W 1278   5.422   3.768   7.884
  282W        W 1279   6.533   5.993   5.084
  283W        W 1280   3.025   4.593   7.244
  284W        W 1281   4.435   3.823   1.570
  285W        W 1282   5.675   6.250   7.689
  286W        W 1283   2.804   4.582   3.176
  287W        W 1284   4.244   0.539   5.236
  288W        W 1285   3.775   3.827   1.334
  289W        W 1286   2.563   2.588   2.961
  290W        W 1287   5.677   6.043   5.750
  291W        W 1288   0.087   7.329   0.257
  292W        W 1289   1.742   1.862   7.722
  293W        W 1290   0.114   5.180   2.143
  294W        W 1291   6.784   5.617   3.362
  295W        W 1292   2.731   4.151   6.901
  296W        W 1293   0.792   5.281   1.646
  297W        W 1294   0.422   5.714   0.978
  298W        W 1295   2.350   4.732   5.471
  299W        W 1296   4.647   7.242   4.709
  300W        W 1297   7.841   4.210   2.193
  301W        W 1298   4.992   0.675   6.877
  302W        W 1299   2.805   1.992   3.466
  303W        W 1300   0.535   4.424   3.478
  304W        W 1301   1.979   2.104   6.411
  305W        W 1302   3.150   3.798   1.634
  306W        W 1303   4.588   6.991   0.788
  307W        W 1304   4.848   2.907   0.667
  308W        W 1305   2.481   2.362   6.005
  309W        W 1306   6.224   0.691   6.822
  310W        W 1307   0.632   3.857   7.284
  311W        W 1308   1.758   0.699   6.406
  312W        W 1309   6.416   6.936   7.574
  313W        W 1310   4.635   4.146   6.694
  314W        W 1311   2.712   4.367   2.746
  315W        W 1312   5.425   3.722   2.390
  316W        W 1313   6.697   4.696   3.271
  317W        W 1314   5.016   5.636   1.548
  318W        W 1315   1.617   1.242   2.597
  319W        W 1316   3.105   0.486   4.764
  320W        W 1317   2.191   7.073   3.340
  321W        W 1318   6.899   1.528   7.660
  322W        W 1319   0.805   4.184   0.003
  323W        W 1320   5.704   5.121   3.873
  324W        W 1321   2.932   0.801   0.370
  325W        W 1322   7.000   5.390   5.643
  326W        W 1323   6.816   7.096   0.521
  327W        W 1324   4.889   1.207   6.940
  328W        W 1325   6.985   6.398   1.029
  329W        W 1326   1.004   5.143   2.218
  330W        W 1327   5.003   2.040   3.247
  331W        W 1328   3.324   5.958   2.361
  332W        W 1329   6.530   3.909   6.745
  333W        W 1330   2.133   6.592   5.974
  334W        W 1331   0.997   2.101   5.539
  335W        W 1332   6.342   1.268   6.690
  336W        W 1333   1.301   6.551   2.309
  337W        W 1334   0.777   1.492   0.827
  338W        W 1335   2.547   1.040   6.531
  339W        W 1336   3.382   1.587   2.877
  340W        W 1337   7.406   4.704   5.392
  341W        W 1338   6.076   0.833   5.340
  342W        W 1339   2.768   3.633   7.114
  343W        W 1340   5.999   6.606   7.491
  344W        W 1341   1.627   0.717   2.411
  345W        W 1342   0.098   2.832   0.606
  346W        W 1343   2.497   5.124   1.054
  347W        W 1344   5.570   2.933   1.837
  348W        W 1345   5.911   3.237   3.193
  349W        W 1346   7.768   3.432   4.713
  350W        W 1347   4.981   5.828   7.675
  351W        W 1348   4.575   2.868   4.304
  352W        W 1349   0.994   4.818   1.317
  353W        W 1350   4.481   7.411   7.134
  354W        W 1351   2.646   5.930   6.748
  355W        W 1352   6.496   1.454   1.899
  356W        W 1353   5.963   5.419   1.042
  357W        W 1354   5.321   1.660   3.240
  358W        W 1355   4.818   5.202   6.966
  359W        W 1356   5.537   3.717   0.458
  360W        W 1357   4.323   2.836   0.552
  361W        W 1358   0.886   5.340   6.281
  362W        W 1359   4.573   1.429   2.257
  363W        W 1360   0.306   1.856   4.245
  364W        W 1361   7.326   2.967   4.964
  365W        W 1362   4.214   5.143   5.601
  366W        W 1363   5.152   1.309   0.457
  367W        W 1364   4.337   3.721   2.079
  368W        W 1365   2.805   0.133   5.663
  369W        W 1366   6.462   2.244   2.499
  370W        W 1367   2.413   5.702   5.113
  371W        W 1368   2.356   4.649   0.183
  372W        W 1369   3.073   3.541   4.860
  373W        W 1370   7.972   4.131   5.298
  374W        W 1371   6.039   6.093   7.368
  375W        W 1372   5.332   1.206   5.178
  376W        W 1373   7.500   3.732   7.005
  377W        W 1374   4.362   4.703   3.421
  378W        W 1375   6.397   4.930   5.059
  379W        W 1376   4.367   0.630   6.638
  380W        W 1377   0.573   6.303   0.535
  381W        W 1378   1.921   5.198   1.019
  382W        W 1379   2.253   4.285   2.069
  383W        W 1380   0.523   0.084   2.524
  384W        W 1381   7.573   0.969   0.532
  385W        W 1382   5.668   7.368   6.679
  386W        W 1383   0.892   2.859   2.310
  387W        W 1384   1.603   4.785   3.774
  388W        W 1385   7.206   6.744   0.661
  389W        W 1386   3.928   5.259   4.369
  390W        W 1387   6.934   1.523   1.598
  391W        W 1388   6.265   3.953   2.164
  392W        W 1389   3.423   1.148   3.498
  393W        W 1390   0.241   3.307   1.316
  394W        W 1391   5.192   6.883   7.365
  395W        W 1392   1.362   4.615   3.381
  396W        W 1393   5.576   7.464   1.775
  397W        W 1394   1.752   2.802   3.190
  398W        W 1395   0.058   2.030   4.773
  399W        W 1396   2.681   4.176   7.386
  400W        W 1397   0.707   7.542   3.167
  401W        W 1398   6.379   5.864   6.323
  402W        W 1399   1.168   3.771   4.365
  403W        W 1400   3.601   2.142   5.778
  404W        W 1401   0.615   1.893   5.790
  405W        W 1402   3.021   6.917   3.273
  406W        W 1403   7.823   1.835   5.082
  407W        W 1404   6.666   3.551   7.171
  408W        W 1405   4.694   0.868   1.349
  409W        W 1406   3.953   1.633   4.995
  410W        W 1407   6.228   2.115   7.354
  411W        W 1408   0.166   5.804   4.064
  412W        W 1409   2.339   0.609   0.742
  413W        W 1410   3.541   1.808   0.365
  414W        W 1411   6.492   5.083   5.554
  415W        W 1412   0.225   6.259   7.246
  416W        W 1413   0.928   1.731   3.962
  417W        W 1414   7.648   1.659   2.228
  418W        W 1415   2.513   1.885   7.289
  419W        W 1416   2.496   1.095   3.080
  420W        W 1417   0.595   3.849   4.288
  421W        W 1418   3.435   2.324   4.412
  422W        W 1419   2.804   5.000   7.134
  423W        W 1420   5.180   3.234   1.965
  424W        W 1421   0.566   6.664   5.754
  425W        W 1422   3.374   6.613   3.132
  426W        W 1423   7.344   7.811   6.781
  427W        W 1424   0.731   3.864   1.693
  428W        W 1425   7.213   1.344   6.940
  429W        W 1426   0.737   2.109   1.248
  430W        W 1427   6.718   4.841   6.852
  431W        W 1428   4.272   7.015   3.315
  432W        W 1429   1.687   4.864   5.992
  433W        W 1430   5.991   0.370   6.393
  434W        W 1431   5.310   2.779   5.362
  435W        W 1432   2.167   5.026   7.731
  436W        W 1433   6.254   6.507   4.976
  437W        W 1434   0.761   1.889   0.418
  438W        W 1435   7.669   4.637   0.673
  439W        W 1436   6.150   4.390   4.087
  440W        W 1437   4.450   6.418   4.240
  441W        W 1438   4.368   6.712   2.046
  442W        W 1439   4.959   3.917   5.607
  443W        W 1440   6.680   1.515   3.000
  444W        W 1441   0.909   0.784   7.552
  445W        W 1442   1.139   0.905   1.385
  446W        W 1443   3.135   4.586   7.784
  447W        W 1444   1.467   5.549   4.738
  448W        W 1445   2.707   0.257   1.550
  449W        W 1446   7.276   2.491   0.280
  450W        W 1447   1.401   0.343   7.024
  451W        W 1448   1.652   5.783   5.755
  452W        W 1449   3.212   4.240   6.956
  453W        W 1450   5.090   3.496   3.901
  454W        W 1451   2.204   1.607   1.031
  455W        W 1452   5.933   7.313   7.178
  456W        W 1453   0.423   3.184   2.254
  457W        W 1454   5.206   1.158   3.101
  458W        W 1455   7.671   3.454   3.286
  459W        W 1456   0.360   0.848   7.618
  460W        W 1457   6.914   3.731   3.693
  461W        W 1458   6.665   6.398   5.403
  462W        W 1459   4.297   1.466   3.131
  463W        W 1460   6.904   5.757   2.450
  464W        W 1461   0.487   6.888   0.434
  465W        W 1462   2.757   4.564   4.506
  466W        W 1463   0.201   7.539   6.349
  467W        W 1464   1.523   3.008   5.442
  468W        W 1465   2.859   1.881   4.174
  469W        W 1466   2.427   3.180   2.033
  470W        W 1467   6.265   7.347   0.304
  471W        W 1468   7.092   2.642   5.770
  472W        W 1469   2.531   3.557   4.853
  473W        W 1470   6.769   2.803   5.426
  474W        W 1471   1.299   3.182   0.545
  475W        W 1472   1.273   1.200   2.197
  476W        W 1473   7.431   1.580   4.839
  477W        W 1474   7.412   3.771   5.062
  478W        W 1475   0.548   4.539   4.546
  479W        W 1476   0.391   3.199   3.101
  480W        W 1477   4.249   7.158   6.207
  481W        W 1478   4.071   4.230   5.690
  482W        W 1479   7.042   2.932   0.499
  483W        W 1480   1.247   5.733   2.433
  484W        W 1481   4.685   3.375   1.712
  485W        W 1482   2.995   7.596   5.450
  486W        W 1483   6.508   7.541   1.735
  487W        W 1484   4.688   3.956   2.447
  488W        W 1485   6.934   7.511   5.920
  489W        W 1486   5.246   2.577   1.201
  490W        W 1487   2.135   5.526   1.287
  491W        W 1488   0.639   4.149   1.266
  492W        W 1489   6.566   3.867   3.310
  493W        W 1490   2.219   2.691   5.617
  494W        W 1491   1.810   1.959   3.307
  495W        W 1492   2.006   2.279   5.823
  496W        W 1493   5.744   1.778   2.600
  497W        W 1494   6.534   2.133   3.736
  498W        W 1495   2.697   7.460   4.056
  499W        W 1496   4.633   0.642   4.197
  500W        W 1497   3.496   3.235   4.749
  501W        W 1498   2.983   1.256   3.038
  502W        W 1499   5.067   6.904   3.109
  503W        W 1500   0.177   6.841   5.469
  504W        W 1501   5.120   6.472   2.237
  505W        W 1502   7.425   1.891   3.543
  506W        W 1503   3.346   3.366   2.062
  507W        W 1504   4.943   3.212   7.333
  508W        W 1505   2.905   0.493   5.326
  509W        W 1506   1.813   1.775   4.665
  510W        W 1507   1.215   4.687   0.844
  511W        W 1508   3.028   7.407   0.527
  512W        W 1509   7.582   0.005   3.042
  513W        W 1510   0.830   1.719   7.354
  514W        W 1511   5.349   4.628   4.057
  515W        W 1512   4.353   3.959   0.011
  516W        W 1513   4.966   2.867   6.984
  517W        W 1514   1.262   3.033   5.054
  518W        W 1515   6.613   7.421   6.380
  519W        W 1516   4.987   7.461   7.894
  520W        W 1517   5.982   5.966   5.055
  521W        W 1518   0.497   0.157   4.251
  522W        W 1519   6.420   7.919   0.320
  523W        W 1520   5.940   6.054   0.239
  524W        W 1521   4.342   2.977   1.604
  525W        W 1522   2.628   3.594   2.729
  526W        W 1523   3.020   1.291   5.221
  527W        W 1524   4.653   2.617   1.232
  528W        W 1525   7.318   0.141   6.262
  529W        W 1526   0.322   3.167   4.880
  530W        W 1527   4.184   0.803   1.556
  531W        W 1528   5.660   4.132   7.602
  532W        W 1529   1.283   4.695   6.268
  533W        W 1530   1.247   6.209   5.510
  534W        W 1531   4.110   1.383   5.752
  535W        W 1532   4.118   4.271   1.307
  536W        W 1533   4.773   7.483   0.258
  537W        W 1534   1.712   6.500   6.804
  538W        W 1535   7.238   4.283   6.320
  539W        W 1536   0.324   3.610   2.813
  540W        W 1537   0.224   3.742   0.793
  541W        W 1538   1.908   6.078   7.028
  542W        W 1539   0.717   3.486   0.585
  543W        W 1540   6.343   2.126   3.278
  544W        W 1541   3.835   1.255   7.451
  545W        W 1542   3.187   0.885   5.582
  546W        W 1543   5.502   3.440   1.015
  547W        W 1544   0.033   4.036   6.689
  548W        W 1545   3.401   7.094   6.261
  549W        W 1546   7.723   6.265   7.387
  550W        W 1547   5.144   5.357   7.685
  551W        W 1548   7.520   2.191   7.253
  552W        W 1549   4.744   5.516   5.387
  553W        W 1550   0.035   2.034   2.958
  554W        W 1551   3.375   4.107   0.903
  555W        W 1552   3.017   5.364   3.640
  556W        W 1553   0.318   4.358   1.668
  557W        W 1554   2.542   1.777   2.588
  558W        W 1555   7.378   5.867   1.885
  559W        W 1556   5.808   0.551   0.559
  560W        W 1557   7.877   2.039   7.607
  561W        W 1558   5.204   3.543   1.426
  562W        W 1559   1.677   2.861   5.916
  563W        W 1560   2.080   0.539   4.640
  564W        W 1561   4.426   0.669   2.879
  565W        W 1562   4.071   2.436   0.616
  566W        W 1563   5.158   5.228   6.585
  567W        W 1564   0.143   0.560   4.410
  568W        W 1565   4.606   5.967   5.119
  569W        W 1566   2.536   0.558   5.816
  570W        W 1567   7.413   4.681   5.948
  571W        W 1568   3.832   7.376   0.280
  572W        W 1569   2.289   0.991   6.095
  573W        W 1570   2.265   7.063   5.248
  574W        W 1571   7.324   0.298   1.252
  575W        W 1572   2.160   2.927   2.892
  576W        W 1573   4.399   0.978   5.528
  577W        W 1574   4.993   5.267   2.821
  578W        W 1575   7.259   2.940   1.332
  579W        W 1576   2.877   6.251   5.587
  580W        W 1577   1.227   1.237   0.955
  581W        W 1578   1.792   4.490   5.249
  582W        W 1579   3.396   7.434   1.537
  583W        W 1580   4.232   3.931   7.043
  584W        W 1581   1.236   7.565   4.667
  585W        W 1582   3.495   4.730   6.042
  586W        W 1583   5.740   1.246   1.262
  587W        W 1584   3.007   1.081   6.393
  588W        W 1585   6.796   4.395   4.888
  589W        W 1586   3.604   3.499   6.074
  590W        W 1587   5.221   1.061   6.166
  591W        W 1588   5.397   7.156   7.021
  592W        W 1589   1.186   5.085   5.902
  593W        W 1590   1.348   2.195   4.747
  594W        W 1591   5.230   6.346   6.416
  595W        W 1592   2.805   4.665   6.760
  596W        W 1593   6.100   1.214   7.252
  597W        W 1594   6.460   0.201   5.175
  598W        W 1595   4.819   3.146   4.692
  599W        W 1596   5.101   1.691   1.163
  600W        W 1597   6.234   3.081   6.213
  601W        W 1598   3.158   2.409   3.475
  602W        W 1599   7.563   0.563   0.850
  603W        W 1600   6.503   3.116   0.416
  604W        W 1601   0.152   2.032   6.016
  605W        W 1602   2.291   0.858   7.014
  606W        W 1603   5.202   0.039   1.816
  607W        W 1604   3.216   2.553   6.908
  608W        W 1605   4.125   0.137   4.980
  609W        W 1606   4.016   0.967   6.795
  610W        W 1607   0.603   5.519   7.381
  611W        W 1608   6.426   3.661   7.654
  612W        W 1609   4.900   5.178   4.854
  613W        W 1610   3.738   3.949   6.893
  614W        W 1611   1.396   5.128   1.171
  615W        W 1612   5.814   6.463   4.070
  616W        W 1613   6.426   6.802   4.629
  617W        W 1614   1.918   1.408   3.199
  618W        W 1615   7.084   0.246   7.757
  619W        W 1616   7.535   3.451   6.572
  620W        W 1617   4.761   4.458   7.624
  621W        W 1618   2.863   3.651   4.411
  622W        W 1619   3.124   4.803   5.673
  623W        W 1620   7.743   2.535   6.986
  624W        W 1621   3.772   5.184   5.908
  625W        W 1622   7.319   0.592   3.824
  626W        W 1623   0.942   3.312   3.162
  627W        W 1624   0.700   2.625   7.709
  628W        W 1625   7.696   4.389   5.619
  629W        W 1626   3.732   1.920   4.338
  630W        W 1627   5.663   7.312   0.318
  631W        W 1628   5.389   2.908   7.218
  632W        W 1629   6.666   1.431   7.086
  633W        W 1630   4.791   5.033   4.367
  634W        W 1631   7.727   7.693   5.756
  635W        W 1632   6.520   5.539   5.383
  636W        W 1633   3.053   0.148   6.574
  637W        W 1634   3.165   0.879   0.806
  638W        W 1635   2.648   2.429   4.900
  639W        W 1636   4.099   7.265   7.501
  640W        W 1637   7.142   7.191   3.641
  641W        W 1638   5.414   4.967   5.019
  642W        W 1639   3.923   5.851   2.934
  643W        W 1640   1.047   0.730   0.842
  644W        W 1641   3.739   6.172   4.685
  645W        W 1642   2.692   1.409   4.344
  646W        W 1643   7.646   0.601   5.030
  647W        W 1644   0.747   7.548   4.601
  648W        W 1645   7.994   6.359   3.127
  649W        W 1646   1.802   3.796   0.068
  650W        W 1647   3.264   6.732   4.230
  651W        W 1648   1.008   3.978   2.077
  652W        W 1649   0.677   1.078   1.695
  653W        W 1650   7.017   4.256   1.494
  654W        W 1651   6.891   6.336   5.858
  655W        W 1652   5.465   1.586   6.276
  656W        W 1653   1.614   5.297   3.790
  657W        W 1654   1.659   3.056   1.384
  658W        W 1655   1.408   3.908   7.214
  659W        W 1656   1.016   3.415   6.237
  660W        W 1657   5.187   5.137   2.376
  661W        W 1658   4.676   2.608   2.394
  662W        W 1659   5.945   7.734   0.261
  663W        W 1660   1.525   2.450   0.197
  664W        W 1661   0.843   5.491   6.891
  665W        W 1662   7.895   6.664   1.385
  666W        W 1663   6.962   5.885   4.657
  667W        W 1664   4.583   7.146   2.891
  668W        W 1665   4.845   3.903   4.494
  669W        W 1666   3.044   4.869   6.206
  670W        W 1667   7.135   0.546   6.432
  671W        W 1668   4.333   6.850   4.869
  672W        W 1669   2.900   5.411   5.076
  673W        W 1670   3.117   0.315   2.395
  674W        W 1671   6.485   0.695   2.439
  675W        W 1672   2.286   5.863   6.341
  676W        W 1673   3.708   0.846   7.169
  677W        W 1674   5.315   1.012   2.156
  678W        W 1675   1.212   6.050   4.135
  679W        W 1676   4.418   4.685   2.333
  680W        W 1677   3.570   2.692   4.939
  681W        W 1678   3.117   3.245   0.875
  682W        W 1679   3.302   5.552   5.361
  683W        W 1680   3.398   6.302   2.719
  684W        W 1681   7.441   2.521   4.771
  685W        W 1682   5.560   3.464   4.792
  686W        W 1683   3.114   6.425   0.093
  687W        W 1684   4.183   0.432   5.722
  688W        W 1685   3.636   4.251   6.241
  689W        W 1686   4.758   3.178   2.262
  690W        W 1687   1.587   1.163   3.531
  691W        W 1688   7.052   4.064   4.338
  692W        W 1689   0.063   3.334   1.877
  693W        W 1690   4.492   2.315   5.164
  694W        W 1691   6.124   5.431   3.999
  695W        W 1692   2.929   3.730   6.663
  696W        W 1693   3.666   1.042   2.376
  697W        W 1694   4.892   0.678   3.118
  698W        W 1695   6.602   4.315   3.583
  699W        W 1696   5.543   6.725   3.066
  700W        W 1697   7.084   3.028   2.700
  701W        W 1698   5.021   6.502   4.099
  702W        W 1699   5.809   4.553   3.736
  703W        W 1700   7.200   6.199   0.631
  704W        W 1701   7.508   3.429   0.331
  705W        W 1702   7.863   0.510   3.663
  706W        W 1703   3.006   4.287   2.349
  707W        W 1704   7.125   2.817   3.551
  708W        W 1705   6.192   5.055   6.704
  709W        W 1706   0.096   5.650   2.097
  710W        W 1707   5.053   5.760   2.776
  711W        W 1708   4.905   1.783   2.274
  712W        W 1709   0.045   5.409   0.230
  713W        W 1710   6.209   6.210   5.412
  714W        W 1711   0.915   3.151   0.918
  715W        W 1712   3.496   1.107   2.959
  716W        W 1713   1.212   3.620   1.771
  717W        W 1714   1.071   5.493   0.947
  718W        W 1715   6.261   0.329   0.226
  719W        W 1716   7.595   7.058   4.752
  720W        W 1717   5.221   7.081   1.783
  721W        W 1718   4.346   7.524   2.685
  722W        W 1719   2.680   2.372   6.812
  723W        W 1720   0.272   4.236   0.905
  724W        W 1721   5.840   5.692   4.668
  725W        W 1722   2.766   1.303   5.679
  726W        W 1723   5.430   2.222   2.987
  727W        W 1724   4.265   1.979   4.152
  728W        W 1725   0.352   0.725   0.326
  729W        W 1726   5.441   5.763   1.841
  730W        W 1727   0.531   2.365   5.632
  731W        W 1728   2.954   1.700   1.674
  732W        W 1729   7.621   3.237   5.727
  733W        W 1730   0.649   2.401   2.353
  734W        W 1731   5.750   2.488   7.144
  735W        W 1732   1.721   3.936   3.585
  736W        W 1733   3.599   7.066   1.749
  737W        W 1734   6.342   3.027   5.733
  738W        W 1735   4.090   4.384   7.175
  739W        W 1736   5.545   4.090   2.682
  740W        W 1737   2.264   5.237   2.081
  741W        W 1738   5.913   7.713   4.093
  742W        W 1739   3.245   6.402   1.144
  743W        W 1740   3.932   3.889   7.439
  744W        W 1741   5.110   0.302   7.294
  745W        W 1742   2.502   6.522   3.966
  746W        W 1743   4.040   7.897   1.758
  747W        W 1744   5.233   2.606   3.191
  748W        W 1745   5.567   7.716   0.647
  749W        W 1746   4.869   1.991   7.449
  750W        W 1747   3.390   3.753   2.940
  751W        W 1748   0.812   1.401   2.087
  752W        W 1749   3.202   6.231   7.403
  753W        W 1750   1.524   6.920   4.096
  754W        W 1751   1.421   1.412   3.028
  755W        W 1752   7.420   1.326   1.427
  756W        W 1753   2.250   3.925   2.825
  757W        W 1754   2.558   2.666   6.394
  758W        W 1755   4.214   0.131   6.769
  759W        W 1756   7.651   2.160   5.691
  760W        W 1757   7.147   2.379   4.286
  761W        W 1758   3.022   1.017   1.382
  762W        W 1759   6.438   3.904   5.094
  763W        W 1760   2.562   1.742   0.562
  764W        W 1761   7.000   6.917   1.133
  765W        W 1762   3.171   7.858   5.933
  766W        W 1763   5.918   1.346   4.481
  767W        W 1764   1.637   3.652   1.536
  768W        W 1765   4.700   5.783   3.570
  769W        W 1766   4.056   4.719   5.852
  770W        W 1767   5.083   0.796   4.373
  771W        W 1768   3.569   7.764   1.852
  772W        W 1769   3.311   0.291   3.292
  773W        W 1770   1.888   2.036   1.124
  774W        W 1771   3.141   5.918   4.320
  775W        W 1772   1.164   5.531   1.461
  776W        W 1773   1.054   6.590   4.219
  777W        W 1774   5.900   4.482   7.822
  778W        W 1775   2.393   6.021   7.142
  779W        W 1776   3.662   1.541   5.473
  780W        W 1777   3.922   4.919   2.477
  781W        W 1778   4.765   0.817   1.985
  782W        W 1779   0.138   4.991   3.804
  783W        W 1780   6.678   2.203   6.575
  784W        W 1781   4.582   7.078   7.520
  785W        W 1782   7.080   0.317   2.566
  786W        W 1783   7.047   0.066   2.996
  787W        W 1784   1.420   6.824   7.049
  788W        W 1785   2.137   6.064   3.184
  789W        W 1786   5.599   1.795   1.442
  790W        W 1787   1.079   1.219   7.341
  791W        W 1788   6.324   7.800   5.275
  792W        W 1789   3.814   6.348   3.067
  793W        W 1790   3.896   0.582   2.569
  794W        W 1791   7.838   7.938   6.760
  795W        W 1792   5.724   3.797   7.221
  796W        W 1793   4.748   0.991   5.906
  797W        W 1794   1.694   6.996   6.608
  798W        W 1795   6.550   6.219   6.919
  799W        W 1796   4.141   2.484   1.491
  800W        W 1797   4.366   4.879   1.892
  801W        W 1798   3.890   4.464   5.227
  802W        W 1799   4.322   4.220   2.198
  803W        W 1800   6.360   0.096   6.675
  804W        W 1801   3.641   2.035   4.803
  805W        W 1802   5.137   0.074   6.827
  806W        W 1803   7.127   1.857   4.383
  807W        W 1804   1.201   2.145   0.449
  808W        W 1805   6.194   7.259   6.684
  809W        W 1806   3.286   6.929   2.196
  810W        W 1807   1.462   2.385   3.446
  811W        W 1808   6.291   2.003   5.622
  812W        W 1809   6.843   6.613   4.968
  813W        W 1810   0.372   5.154   0.568
  814W        W 1811   0.192   7.138   1.280
  815W        W 1812   3.695   6.274   7.428
  816W        W 1813   1.536   1.917   5.082
  817W        W 1814   3.745   5.473   2.203
  818W        W 1815   2.387   1.610   3.010
  819W        W 1816   1.472   4.161   3.223
  820W        W 1817   3.574   6.717   1.410
  821W        W 1818   5.807   3.849   2.025
  822W        W 1819   4.042   6.809   2.948
  823W        W 1820   2.298   5.809   2.189
  824W        W 1821   1.396   7.287   3.533
  825W        W 1822   1.489   6.440   3.203
  826W        W 1823   5.793   4.260   3.313
  827W        W 1824   6.593   6.010   1.145
  828W        W 1825   5.584   4.019   1.010
  829W        W 1826   7.551   2.447   6.509
  830W        W 1827   4.137   1.128   2.129
  831W        W 1828   3.710   2.616   7.064
  832W        W 1829   2.771   3.120   1.212
  833W        W 1830   7.193   3.845   6.617
  834W        W 1831   3.496   1.347   0.700
  835W        W 1832   4.900   1.727   0.701
  836W        W 1833   5.959   1.680   4.854
  837W        W 1834   3.907   1.399   6.185
  838W        W 1835   6.760   3.430   2.768
  839W        W 1836   2.220   5.611   5.922
  840W        W 1837   0.017   2.878   5.815
  841W        W 1838   4.875   6.902   5.078
  842W        W 1839   0.603   3.088   3.538
  843W        W 1840   0.824   2.973   4.029
  844W        W 1841   3.367   0.318   5.128
  845W        W 1842   4.797   7.291   3.383
  846W        W 1843   2.473   6.320   6.284
  847W        W 1844   2.635   3.243   6.778
  848W        W 1845   6.674   2.198   4.234
  849W        W 1846   1.766   4.509   2.203
  850W        W 1847   1.742   2.104   3.805
  851W        W 1848   3.532   5.255   7.353
  852W        W 1849   6.076   2.859   0.746
  853W        W 1850   6.226   3.159   6.787
  854W        W 1851   6.840   2.037   1.491
  855W        W 1852   4.746   7.648   6.686
  856W        W 1853   6.275   7.544   1.196
  857W        W 1854   1.311   2.704   1.901
  858W        W 1855   5.397   2.054   0.944
  859W        W 1856   1.893   0.839   0.304
  860W        W 1857   0.295   2.665   3.303
  861W        W 1858   5.081   3.448   5.746
  862W        W 1859   7.060   2.886   2.249
  863W        W 1860   7.262   3.375   4.721
  864W        W 1861   0.889   0.470   6.247
  865W        W 1862   3.078   3.706   0.687
  866W        W 1863   0.735   2.826   3.144
  867W        W 1864   1.304   4.926   7.471
  868W        W 1865   4.825   4.081   6.240
  869W        W 1866   5.556   0.551   6.714
  870W        W 1867   7.038   6.970   1.620
  871W        W 1868   3.822   4.518   1.635
  872W        W 1869   4.001   1.172   5.234
  873W        W 1870   0.546   3.519   6.411
  874W        W 1871   2.529   7.416   0.197
  875W        W 1872   0.703   1.015   5.857
  876W        W 1873   7.105   6.582   2.538
  877W        W 1874   3.681   1.747   6.533
  878W        W 1875   5.293   4.796   6.354
  879W        W 1876   1.332   0.205   1.773
  880W        W 1877   5.819   7.572   7.811
  881W        W 1878   4.667   0.544   5.546
  882W        W 1879   5.235   5.420   5.229
  883W        W 1880   3.351   4.753   2.063
  884W        W 1881   5.804   2.667   1.240
  885W        W 1882   0.001   1.151   2.642
  886W        W 1883   6.472   4.314   2.496
  887W        W 1884   3.087   7.268   4.331
  888W        W 1885   1.157   0.291   0.019
  889W        W 1886   0.068   3.400   6.557
  890W        W 1887   3.296   3.517   5.610
  891W        W 1888   4.511   5.557   4.874
  892W        W 1889   5.860   4.474   0.835
  893W        W 1890   3.140   5.477   4.628
  894W        W 1891   6.893   6.693   6.422
  895W        W 1892   4.391   2.575   3.360
  896W        W 1893   2.906   6.379   4.289
  897W        W 1894   2.871   6.934   7.424
  898W        W 1895   3.712   2.699   1.305
  899W        W 1896   1.796   1.134   5.320
  900W        W 1897   4.092   2.239   3.547
  901W        W 1898   1.500   0.397   0.922
  902W        W 1899   6.536   7.195   0.908
  903W        W 1900   5.036   3.241   1.043
  904W        W 1901   6.763   3.246   7.585
  905W        W 1902   7.846   6.979   6.494
  906W        W 1903   4.943   4.920   7.811
  907W        W 1904   4.566   3.157   5.852
  908W        W 1905   2.943   6.998   3.799
  909W        W 1906   6.608   1.653   0.232
  910W        W 1907   1.326   5.599   6.604
  911W        W 1908   0.515   7.604   2.725
  912W        W 1909   2.104   3.453   2.841
  913W        W 1910   6.428   6.822   5.303
  914W        W 1911   5.360   4.774   6.942
  915W        W 1912   3.958   6.118   6.932
  916W        W 1913   0.128   4.512   3.746
  917W        W 1914   6.709   2.108   2.927
  918W        W 1915   1.515   2.327   6.240
  919W        W 1916   4.465   5.572   7.382
  920W        W 1917   6.941   6.530   3.030
  921W        W 1918   7.004   1.155   1.234
  922W        W 1919   0.388   3.811   5.758
  923W        W 1920   6.670   0.107   7.514
  924W        W 1921   0.297   4.506   5.010
  925W        W 1922   0.271   4.677   5.534
  926W        W 1923   4.491   2.303   7.446
  927W        W 1924   4.296   4.753   2.859
  928W        W 1925   2.726   5.544   0.325
  929W        W 1926   3.337   2.878   3.083
  930W        W 1927   3.582   0.331   2.203
  931W        W 1928   6.898   1.536   4.724
  932W        W 1929   2.483   1.644   3.901
  933W        W 1930   4.864   5.840   1.046
  934W        W 1931   6.844   3.175   3.995
  935W        W 1932   0.518   3.301   1.767
  936W        W 1933   5.552   1.919   4.293
  937W        W 1934   6.644   6.410   3.846
  938W        W 1935   5.767   1.207   5.472
  939W        W 1936   6.334   2.871   1.214
  940W        W 1937   1.164   0.380   1.302
  941W        W 1938   7.745   7.456   3.841
  942W        W 1939   1.428   5.400   5.470
  943W        W 1940   7.012   3.763   1.423
  944W        W 1941   2.536   2.445   3.485
  945W        W 1942   2.839   4.805   5.160
  946W        W 1943   6.972   6.161   3.542
  947W        W 1944   0.454   3.077   0.898
  948W        W 1945   1.276   5.980   1.156
  949W        W 1946   3.757   0.708   5.103
  950W        W 1947   4.030   5.915   7.447
  951W        W 1948   3.198   1.616   3.374
  952W        W 1949   7.319   5.022   0.938
  953W        W 1950   6.514   6.061   2.216
  954W        W 1951   3.070   4.476   4.871
  955W        W 1952   3.013   2.894   6.527
  956W        W 1953   0.221   2.667   1.105
  957W        W 1954   5.527   2.920   0.879
  958W        W 1955   7.000   1.626   3.893
  959W        W 1956   6.018   0.832   1.040
  960W        W 1957   3.547   2.545   2.758
  961W        W 1958   1.077   0.354   4.798
  962W        W 1959   2.600   5.145   3.858
  963W        W 1960   6.357   6.420   4.224
  964W        W 1961   2.504   2.739   0.926
  965W        W 1962   2.973   3.959   2.779
  966W        W 1963   5.555   0.154   7.125
  967W        W 1964   0.784   5.443   0.582
  968W        W 1965   4.456   7.403   5.796
  969W        W 1966   3.083   2.675   4.172
  970W        W 1967   4.675   2.752   1.870
  971W        W 1968   2.269   6.175   1.319
  972W        W 1969   0.625   5.859   1.817
  973W        W 1970   4.490   2.764   5.433
  974W        W 1971   1.819   5.613   0.564
  975W        W 1972   0.003   4.041   0.383
  976W        W 1973   2.220   4.757   6.135
  977W        W 1974   7.332   7.423   1.373
  978W        W 1975   4.591   4.252   3.345
  979W        W 1976   6.335   6.960   4.023
  980W        W 1977   3.316   5.053   5.264
  981W        W 1978   7.113   1.939   1.921
  982W        W 1979   3.062   5.826   2.898
  983W        W 1980   4.602   6.999   0.081
  984W        W 1981   4.303   6.390   2.982
  985W        W 1982   6.280   6.292   7.885
  986W        W 1983   0.843   4.714   3.298
  987W        W 1984   1.900   0.251   4.031
  988W        W 1985   5.108   6.126   4.576
  989W        W 1986   5.227   4.048   0.225
  990W        W 1987   5.713   1.745   1.961
  991W        W 1988   3.530   7.966   7.123
  992W        W 1989   6.268   4.709   2.901
  993W        W 1990   7.776   5.874   7.021
  994W        W 1991   6.335   5.614   1.370
  995W        W 1992   0.195   1.231   0.158
  996W        W 1993   0.354   7.844   6.757
  997W        W 1994   7.476   2.066   4.116
  998W        W 1995   2.580   4.977   6.336
  999W        W 1996   4.949   4.583   3.597
 1000W        W 1997   3.142   6.756   5.561
 1001W        W 1998   1.693   3.645   5.545
 1002W        W 1999   1.664   3.058   4.620
 1003W        W 2000   6.564   2.752   0.738
 1004W        W 2001   2.044   4.616   6.907
 1005W        W 2002   4.830   4.724   1.087
 1006W        W 2003   3.505   2.500   0.225
 1007W        W 2004   5.833   5.746   1.482
 1008W        W 2005   7.628   3.244   1.543
 1009W        W 2006   5.518   2.090   3.465
 1010W        W 2007   6.436   0.366   3.845
 1011W        W 2008   7.726   2.999   7.922
 1012W        W 2009   6.981   4.385   5.350
 1013W        W 2010   2.699   4.150   4.825
 1014W        W 2011   0.296   1.363   4.181
 1015W        W 2012   0.897   3.350   1.464
 1016W        W 2013   3.471   5.128   2.408
 1017W        W 2014   3.724   1.509   3.200
 1018W        W 2015   1.622   3.374   2.600
 1019W        W 2016   4.354   7.543   3.313
 1020W        W 2017   7.034   5.787   3.834
 1021W        W 2018   3.507   3.142   5.294
 1022W        W 2019   3.004   0.352   0.136
 1023W        W 2020   5.241   3.473   4.395
 1024W        W 2021   4.364   0.457   7.512
 1025W        W 2022   0.452   4.205   7.641
 1026W        W 2023   5.168   0.548   2.339
 1027W        W 2024   1.032   4.046   6.922
 1028W        W 2025   4.476   0.410   1.428
 1029W        W 2026   2.368   6.709   7.733
 1030W        W 2027   5.465   5.845   0.242
 1031W        W 2028   3.378   4.676   0.238
 1032W        W 2029   3.341   5.214   1.690
 1033W        W 2030   5.398   2.125   6.481
 1034W        W 2031   4.562   1.263   0.791
 1035W        W 2032   1.465   6.290   7.881
 1036W        W 2033   2.826   6.337   7.059
 1037W        W 2034   0.909   2.548   5.958
 1038W        W 2035   1.821   0.355   0.484
 1039W        W 2036   1.403   1.589   1.921
 1040W        W 2037   1.342   1.666   2.598
 1041W        W 2038   6.060   1.427   2.206
 1042W        W 2039   1.834   0.195   2.522
 1043W        W 2040   6.239   7.300   5.351
 1044W        W 2041   4.969   4.629   2.548
 1045W        W 2042   0.777   3.832   3.508
 1046W        W 2043   5.149   6.670   6.909
 1047W        W 2044   6.085   1.512   6.300
 1048W        W 2045   7.465   2.577   3.265
 1049W        W 2046   6.087   1.336   3.709
 1050W        W 2047   1.638   2.544   6.727
 1051W        W 2048   0.385   4.034   4.797
 1052W        W 2049   6.067   3.769   3.175
 1053W        W 2050   0.482   1.379   5.674
 1054W        W 2051   0.242   4.853   3.310
 1055W        W 2052   3.665   3.092   5.783
 1056W        W 2053   0.524   3.550   3.870
 1057W        W 2054   4.999   6.683   5.574
 1058W        W 2055   0.938   1.418   6.009
 1059W        W 2056   5.440   4.797   3.544
 1060W        W 2057   4.939   7.991   5.248
 1061W        W 2058   1.130   4.601   0.022
 1062W        W 2059   4.667   0.450   5.005
 1063W        W 2060   0.559   1.736   5.308
 1064W        W 2061   1.912   7.623   0.138
 1065W        W 2062   5.143   1.691   1.760
 1066W        W 2063   6.608   3.807   1.743
 1067W        W 2064   3.360   2.001   4.042
 1068W        W 2065   1.248   6.889   3.215
 1069W        W 2066   0.386   0.180   0.625
 1070W        W 2067   4.866   2.164   0.978
 1071W        W 2068   7.818   0.030   0.051
 1072W        W 2069   1.154   2.878   1.361
 1073W        W 2070   1.303   5.078   1.776
 1074W        W 2071   0.217   5.175   1.127
 1075W        W 2072   2.460   5.193   5.213
 1076W        W 2073   3.241   7.779   2.356
 1077W        W 2074   6.462   0.782   4.379
 1078W        W 2075   5.998   1.762   4.130
 1079W        W 2076   1.353   3.223   6.577
 1080W        W 2077   2.632   3.609   0.299
 1081W        W 2078   6.247   1.885   2.814
 1082W        W 2079   0.016   0.103   4.674
 1083W        W 2080   0.791   3.735   5.499
 1084W        W 2081   1.278   1.701   4.585
 1085W        W 2082   6.061   1.630   1.049
 1086W        W 2083   2.201   1.277   5.682
 1087W        W 2084   7.471   0.804   3.433
 1088W        W 2085   4.863   6.071   2.328
 1089W        W 2086   0.007   7.473   7.485
 1090W        W 2087   0.304   6.595   0.094
 1091W        W 2088   6.980   3.724   5.751
 1092W        W 2089   7.267   0.286   3.432
 1093W        W 2090   6.712   4.690   7.639
 1094W        W 2091   1.447   1.939   2.961
 1095W        W 2092   3.201   5.503   0.365
 1096W        W 2093   0.985   5.964   3.333
 1097W        W 2094   6.265   4.431   5.015
 1098W        W 2095   3.817   0.298   5.391
 1099W        W 2096   2.476   0.913   7.524
 1100W        W 2097   6.121   3.427   7.186
 1101W        W 2098   7.453   2.320   5.309
 1102W        W 2099   7.640   7.552   7.172
 1103W        W 2100   2.261   0.455   0.278
 1104W        W 2101   0.618   6.358   1.648
 1105W        W 2102   5.950   2.835   4.406
 1106W        W 2103   3.496   0.941   7.629
 1107W        W 2104   3.541   0.154   2.723
 1108W        W 2105   6.605   4.633   3.981
 1109W        W 2106   3.676   6.414   3.541
 1110W        W 2107   0.629   1.559   1.554
 1111W        W 2108   5.639   1.258   2.512
 1112W        W 2109   6.580   2.519   7.484
 1113W        W 2110   3.073   6.453   2.278
 1114W        W 2111   4.136   5.789   0.177
 1115W        W 2112   6.582   2.142   0.206
 1116W        W 2113   3.323   6.757   7.436
 1117W        W 2114   7.066   7.436   4.566
 1118W        W 2115   7.386   2.328   6.003
 1119W        W 2116   4.897   3.388   6.199
 1120W        W 2117   3.152   1.405   6.034
 1121W        W 2118   4.086   7.244   4.600
 1122W        W 2119   4.753   6.501   4.682
 1123W        W 2120   0.311   2.970   6.510
 1124W        W 2121   3.989   1.950   5.393
 1125W        W 2122   3.163   6.994   1.347
 1126W        W 2123   3.157   2.765   4.711
 1127W        W 2124   7.860   4.910   5.399
 1128W        W 2125   7.415   4.168   0.704
 1129W        W 2126   6.256   1.267   4.194
 1130W        W 2127   3.739   5.514   1.710
 1131W        W 2128   3.727   2.511   2.244
 1132W        W 2129   2.640   2.948   4.716
 1133W        W 2130   3.330   4.647   6.497
 1134W        W 2131   2.232   2.089   3.938
 1135W        W 2132   5.287   2.289   7.423
 1136W        W 2133   7.015   5.663   5.231
 1137W        W 2134   3.494   5.968   3.092
 1138W        W 2135   5.105   5.474   6.177
 1139W        W 2136   7.078   6.166   5.351
 1140W        W 2137   6.122   1.669   0.272
 1141W        W 2138   0.562   6.696   4.224
 1142W        W 2139   7.264   2.924   4.477
 1143W        W 2140   4.618   4.853   5.774
 1144W        W 2141   5.446   0.715   3.238
 1145W        W 2142   4.487   5.108   6.605
 1146W        W 2143   3.494   1.117   5.266
 1147W        W 2144   6.668   2.283   5.422
 1148W        W 2145   3.832   3.164   3.826
 1149W        W 2146   5.900   4.294   2.348
 1150W        W 2147   4.167   7.871   5.845
 1151W        W 2148   0.744   0.647   3.507
 1152W        W 2149   1.061   2.166   6.440
 1153W        W 2150   1.456   6.088   6.783
 1154W        W 2151   0.721   5.777   4.064
 1155W        W 2152   2.224   4.029   1.619
 1156W        W 2153   6.049   4.942   5.816
 1157W        W 2154   4.093   7.270   4.077
 1158W        W 2155   4.486   1.512   3.592
 1159W        W 2156   7.591   1.988   3.057
 1160W        W 2157   0.176   4.104   4.233
 1161W        W 2158   3.102   2.998   5.602
 1162W        W 2159   6.150   4.255   5.563
 1163W        W 2160   0.834   4.074   5.082
 1164W        W 2161   0.487   1.568   6.136
 1165W        W 2162   1.649   2.257   0.717
 1166W        W 2163   3.816   3.033   2.810
 1167W        W 2164   7.677   5.164   1.867
 1168W        W 2165   0.980   6.467   3.292
 1169W        W 2166   3.674   6.573   5.610
 1170W        W 2167   6.041   4.914   7.650
 1171W        W 2168   1.498   1.382   4.905
 1172W        W 2169   4.399   2.224   1.137
 1173W        W 2170   1.079   0.800   4.328
 1174W        W 2171   6.991   5.747   0.853
 1175W        W 2172   3.953   0.469   0.623
 1176W        W 2173   7.739   5.277   1.321
 1177W        W 2174   5.560   2.026   4.787
 1178W        W 2175   5.736   6.995   6.161
 1179W        W 2176   4.503   2.133   5.680
 1180W        W 2177   0.339   7.377   1.948
 1181W        W 2178   0.921   6.228   2.177
 1182W        W 2179   1.817   7.156   7.400
 1183W        W 2180   1.042   6.311   7.583
 1184W        W 2181   1.148   4.542   6.912
 1185W        W 2182   6.086   5.191   1.483
 1186W        W 2183   4.388   0.124   0.498
 1187W        W 2184   6.891   5.013   7.314
 1188W        W 2185   4.201   3.828   2.580
 1189W        W 2186   6.918   4.515   6.020
 1190W        W 2187   7.212   6.156   2.290
 1191W        W 2188   2.993   6.432   0.665
 1192W        W 2189   5.777   5.716   7.713
 1193W        W 2190   1.153   2.669   0.473
 1194W        W 2191   6.464   2.630   6.372
 1195W        W 2192   1.910   7.212   0.497
 1196W        W 2193   2.532   6.671   0.820
 1197W        W 2194   4.139   7.036   1.675
 1198W        W 2195   6.230   5.550   1.949
 1199W        W 2196   1.666   2.182   2.557
 1200W        W 2197   2.492   6.273   2.169
 1201W        W 2198   2.663   7.517   0.802
 1202W        W 2199   3.737   2.660   6.034
 1203W        W 2200   6.420   2.814   4.139
 1204W        W 2201   2.111   3.553   1.486
 1205W        W 2202   0.056   0.427   2.832
 1206W        W 2203   1.117   7.647   6.069
 1207W        W 2204   2.025   3.961   7.673
 1208W        W 2205   2.661   4.839   5.864
 1209W        W 2206   3.781   0.367   1.725
 1210W        W 2207   4.343   4.692   5.384
 1211W        W 2208   5.340   6.059   2.541
 1212W        W 2209   1.347   6.122   2.686
 1213W        W 2210   2.514   3.844   0.708
 1214W        W 2211   2.943   0.783   2.344
 1215W        W 2212   4.079   6.023   4.351
 1216W        W 2213   3.688   2.512   3.309
 1217W        W 2214   0.232   6.549   0.771
 1218W        W 2215   0.591   5.175   3.517
 1219W        W 2216   4.496   2.126   2.183
 1220W        W 2217   5.587   2.360   1.548
 1221W        W 2218   3.663   0.579   3.519
 1222W        W 2219   3.412   2.518   6.484
 1223W        W 2220   1.800   6.958   4.553
 1224W        W 2221   4.602   2.448   0.681
 1225W        W 2222   0.176   3.893   3.716
 1226W        W 2223   4.649   1.885   4.478
 1227W        W 2224   6.861   1.993   2.479
 1228W        W 2225   6.455   5.133   2.675
 1229W        W 2226   3.810   5.574   0.861
 1230W        W 2227   5.481   0.448   7.577
 1231W        W 2228   0.850   0.708   2.890
 1232W        W 2229   0.172   5.419   6.260
 1233W        W 2230   1.607   3.627   7.575
 1234W        W 2231   4.993   6.619   1.777
 1235W        W 2232   0.447   3.259   0.140
 1236W        W 2233   6.302   6.449   0.468
 1237W        W 2234   2.023   4.775   4.566
 1238W        W 2235   5.914   2.344   3.234
 1239W        W 2236   1.936   7.458   1.801
 1240W        W 2237   2.191   5.884   0.891
 1241W        W 2238   0.403   0.677   2.529
 1242W        W 2239   3.607   4.399   5.713
 1243W        W 2240   6.651   4.122   5.875
 1244W        W 2241   3.650   1.181   5.817
 1245W        W 2242   6.839   0.103   0.252
 1246W        W 2243   1.304   2.260   7.257
 1247W        W 2244   0.355   6.905   2.535
 1248W        W 2245   6.922   4.117   1.982
 1249W        W 2246   6.060   5.321   2.393
 1250W        W 2247   6.034   3.740   0.950
 1251W        W 2248   3.728   0.913   6.345
 1252W        W 2249   3.315   4.899   2.817
 1253W        W 2250   5.217   4.981   5.881
 1254W        W 2251   3.032   1.755   2.519
 1255W        W 2252   2.294   6.490   1.731
 1256W        W 2253   5.000   2.260   2.551
 1257W        W 2254   5.754   4.647   7.351
 1258W        W 2255   4.997   6.915   4.465
 1259W        W 2256   3.596   2.501   0.732
 1260W        W 2257   0.833   7.622   6.778
 1261W        W 2258   4.062   5.318   4.870
 1262W        W 2259   2.040   0.260   5.024
 1263W        W 2260   0.862   6.538   0.251
 1264W        W 2261   5.894   7.172   3.957
 1265W        W 2262   1.124   3.015   2.735
 1266W        W 2263   3.539   4.136   4.956
 1267W        W 2264   1.384   3.156   1.782
 1268W        W 2265   3.578   1.992   7.916
 1269W        W 2266   0.285   5.537   3.614
 1270W        W 2267   0.325   0.641   1.620
 1271W        W 2268   4.457   7.728   5.363
 1272W        W 2269   5.461   4.541   2.447
 1273W        W 2270   5.951   7.552   2.617
 1274W        W 2271   0.764   5.254   4.025
 1275W        W 2272   7.025   4.993   6.147
 1276W        W 2273   1.355   0.207   2.311
 1277W        W 2274   4.635   5.394   4.002
 1278W        W 2275   4.323   6.866   3.803
 1279W        W 2276   6.591   2.008   1.994
 1280W        W 2277   2.815   2.610   7.300
 1281W        W 2278   6.963   0.777   3.486
 1282W        W 2279   5.027   1.383   6.502
 1283W        W 2280   3.985   7.425   0.898
 1284W        W 2281   5.171   7.381   2.880
 1285W        W 2282   0.061   1.487   5.192
 1286W        W 2283   4.686   0.030   7.445
 1287W        W 2284   2.811   2.637   5.717
 1288W        W 2285   5.301   0.539   0.683
 1289W        W 2286   3.173   1.837   7.517
 1290W        W 2287   1.914   4.956   0.181
 1291W        W 2288   5.814   0.605   7.206
 1292W        W 2289   5.515   3.154   0.293
 1293W        W 2290   5.947   0.852   4.478
 1294W        W 2291   5.108   5.571   3.873
 1295W        W 2292   6.119   4.913   3.718
 1296W        W 2293   6.069   3.507   6.110
 1297W        W 2294   7.708   1.714   7.231
 1298W        W 2295   1.076   5.248   4.481
 1299W        W 2296   7.738   1.006   6.227
 1300W        W 2297   3.882   7.454   1.443
 1301W        W 2298   7.136   7.857   5.127
 1302W        W 2299   1.508   2.550   1.237
 1303W        W 2300   3.943   0.452   6.544
 1304W        W 2301   7.671   4.616   1.903
 1305W        W 2302   2.006   2.364   7.588
 1306W        W 2303   1.266   3.859   5.422
 1307W        W 2304   4.074   1.852   1.220
 1308W        W 2305   2.767   6.856   2.116
 1309W        W 2306   2.694   1.833   6.786
 1310W        W 2307   1.776   3.968   1.882
 1311W        W 2308   0.937   6.741   7.292
 1312W        W 2309   3.873   2.918   0.695
 1313W        W 2310   5.136   5.654   2.250
 1314W        W 2311   5.669   0.753   6.255
 1315W        W 2312   2.224   1.472   2.370
 1316W        W 2313   3.789   6.089   2.538
 1317W        W 2314   3.637   6.393   4.251
 1318W        W 2315   4.946   7.098   3.972
 1319W        W 2316   2.105   6.729   6.482
 1320W        W 2317   0.188   7.660   5.751
 1321W        W 2318   6.312   6.895   0.582
 1322W        W 2319   6.740   4.741   2.733
 1323W        W 2320   2.082   3.323   4.749
 1324W        W 2321   5.952   6.594   1.539
 1325W        W 2322   1.833   4.741   7.357
 1326W        W 2323   6.362   5.429   3.533
 1327W        W 2324   2.922   5.931   5.199
 1328W        W 2325   1.617   6.714   2.744
 1329W        W 2326   5.128   4.140   2.311
 1330W        W 2327   3.305   5.931   0.083
 1331W        W 2328   4.899   1.989   5.242
 1332W        W 2329   6.758   2.202   4.719
 1333W        W 2330   0.718   1.108   1.178
 1334W        W 2331   5.579   3.161   7.796
 1335W        W 2332   1.112   3.647   0.840
 1336W        W 2333   6.331   0.780   2.972
 1337W        W 2334   4.908   4.412   5.364
 1338W        W 2335   7.587   5.823   0.334
 1339W        W 2336   7.290   1.129   3.799
 1340W        W 2337   3.714   2.040   1.465
 1341W        W 2338   7.237   5.494   2.855
 1342W        W 2339   3.796   6.571   6.955
 1343W        W 2340   1.778   6.030   1.271
 1344W        W 2341   7.591   2.620   1.561
 1345W        W 2342   1.116   5.761   4.478
 1346W        W 2343   5.633   5.043   6.633
 1347W        W 2344   7.688   3.141   4.289
 1348W        W 2345   4.078   6.811   1.228
 1349W        W 2346   7.388   6.661   7.393
 1350W        W 2347   2.617   2.730   5.294
 1351W        W 2348   0.066   4.405   4.621
 1352W        W 2349   0.529   5.970   3.629
 1353W        W 2350   1.082   5.121   3.580
 1354W        W 2351   6.769   6.635   7.704
 1355W        W 2352   0.164   6.131   6.648
 1356W        W 2353   1.351   0.689   0.338
 1357W        W 2354   5.822   4.122   0.417
 1358W        W 2355   3.554   3.598   7.563
 1359W        W 2356   0.559   3.992   6.820
 1360W        W 2357   1.324   3.160   2.276
 1361W        W 2358   1.894   1.102   7.970
 1362W        W 2359   2.800   4.596   3.966
 1363W        W 2360   4.534   1.931   3.184
 1364W        W 2361   1.318   0.987   7.823
 1365W        W 2362   5.336   6.642   0.219
 1366W        W 2363   5.751   4.630   2.029
 1367W        W 2364   2.358   2.337   7.234
 1368W        W 2365   5.462   7.445   5.905
 1369W        W 2366   3.398   6.171   5.759
 1370W        W 2367   5.394   7.332   3.924
 1371W        W 2368   1.932   6.657   7.394
 1372W        W 2369   5.947   3.208   1.205
 1373W        W 2370   3.313   3.006   6.108
 1374W        W 2371   7.018   4.293   7.774
 1375W        W 2372   6.251   4.531   2.084
 1376W        W 2373   5.677   0.823   1.485
 1377W        W 2374   0.181   0.313   7.472
 1378W        W 2375   4.061   5.772   6.440
 1379W        W 2376   4.046   2.412   5.076
 1380W        W 2377   0.514   7.411   3.602
 1381W        W 2378   6.063   2.971   2.700
 1382W        W 2379   6.957   3.770   7.577
 1383W        W 2380   4.540   2.522   6.452
 1384W        W 2381   3.530   0.381   6.928
 1385W        W 2382   7.183   0.281   0.651
 1386W        W 2383   3.573   2.011   3.508
 1387W        W 2384   7.941   6.739   7.309
 1388W        W 2385   5.642   1.206   5.954
 1389W        W 2386   3.708   0.045   6.418
 1390W        W 2387   5.034   1.272   4.762
 1391W        W 2388   1.725   4.283   6.180
 1392W        W 2389   4.089   2.308   3.037
 1393W        W 2390   6.949   0.172   3.822
 1394W        W 2391   1.038   3.576   7.433
 1395W        W 2392   2.652   5.645   1.216
 1396W        W 2393   6.126   6.337   3.747
 1397W        W 2394   1.999   3.934   4.185
 1398W        W 2395   0.093   1.727   6.402
 1399W        W 2396   3.957   7.669   5.072
 1400W        W 2397   1.754   2.981   6.474
 1401W        W 2398   6.848   5.103   3.094
 1402W        W 2399   5.235   1.803   2.756
 1403W        W 2400   1.685   1.293   0.421
 1404W        W 2401   3.094   5.313   2.624
 1405W        W 2402   7.130   4.711   6.527
 1406W        W 2403   0.545   6.512   7.548
 1407W        W 2404   1.963   6.059   5.524
 1408W        W 2405   0.439   1.282   2.433
 1409W        W 2406   0.256   3.930   1.979
 1410W        W 2407   0.659   7.191   4.113
 1411W        W 2408   6.040   4.928   4.276
 1412W        W 2409   7.192   2.343   1.678
 1413W        W 2410   0.855   0.673   0.025
 1414W        W 2411   1.077   4.228   4.581
 1415W        W 2412   6.233   7.846   2.339
 1416W        W 2413   3.342   0.838   6.064
 1417W        W 2414   5.847   3.300   0.705
 1418W        W 2415   1.049   2.854   5.481
 1419W        W 2416   3.880   1.009   3.305
 1420W        W 2417   3.349   0.740   2.617
 1421W        W 2418   3.414   0.026   3.754
 1422W        W 2419   5.279   3.992   3.233
 1423W        W 2420   1.204   1.112   5.672
 1424W        W 2421   5.867   1.910   6.439
 1425W        W 2422   6.972   4.184   3.358
 1426W        W 2423   1.757   5.758   2.386
 1427W        W 2424   4.545   0.159   7.952
 1428W        W 2425   2.785   0.380   0.604
 1429W        W 2426   7.453   7.326   6.059
 1430W        W 2427   7.622   7.395   6.668
 1431W        W 2428   4.467   7.370   2.231
 1432W        W 2429   5.881   6.534   6.110
 1433W        W 2430   4.576   5.573   6.286
 1434W        W 2431   7.622   2.966   7.407
 1435W        W 2432   0.696   0.010   4.939
 1436W        W 2433   2.370   4.307   4.069
 1437W        W 2434   2.765   6.116   0.203
 1438W        W 2435   6.542   2.731   2.102
 1439W        W 2436   5.764   6.814   0.460
 1440W        W 2437   0.607   5.107   5.786
 1441W        W 2438   4.776   6.357   6.772
 1442W        W 2439   5.685   5.510   5.672
 1443W        W 2440   6.651   7.169   3.600
 1444W        W 2441   7.032   1.800   7.258
 1445W        W 2442   7.466   0.457   7.432
 1446W        W 2443   5.107   0.975   1.586
 1447W        W 2444   2.976   2.602   0.038
 1448W        W 2445   5.096   0.342   3.456
 1449W        W 2446   7.414   3.625   6.082
 1450W        W 2447   0.981   1.980   6.889
 1451W        W 2448   1.698   6.040   0.745
 1452W        W 2449   4.291   7.260   5.202
 1453W        W 2450   2.094   1.166   2.820
 1454W        W 2451   4.369   0.714   2.394
 1455W        W 2452   4.646   5.944   7.121
 1456W        W 2453   7.515   7.059   1.667
 1457W        W 2454   5.632   6.273   0.555
 1458W        W 2455   7.772   5.007   2.868
 1459W        W 2456   0.832   7.449   1.820
 1460W        W 2457   6.322   5.740   3.160
 1461W        W 2458   2.543   3.552   1.080
 1462W        W 2459   1.489   3.457   3.598
 1463W        W 2460   7.830   0.337   1.667
 1464W        W 2461   4.464   7.476   4.318
 1465W        W 2462   7.209   1.608   1.007
 1466W        W 2463   7.819   2.425   0.823
 1467W        W 2464   7.684   3.770   1.542
 1468W        W 2465   7.616   1.182   4.268
 1469W        W 2466   4.021   1.985   0.088
 1470W        W 2467   4.175   5.704   2.109
 1471W        W 2468   0.808   4.842   0.512
 1472W        W 2469   0.557   0.767   0.837
 1473W        W 2470   7.396   2.144   2.285
 1474W        W 2471   2.719   4.465   6.255
 1475W        W 2472   3.286   1.367   7.418
 1476W        W 2473   6.292   1.655   3.345
 1477W        W 2474   0.073   7.311   2.727
 1478W        W 2475   4.249   5.123   3.707
 1479W        W 2476   6.108   0.476   2.685
 1480W        W 2477   5.061   3.422   7.793
 1481W        W 2478   5.746   0.169   2.180
 1482W        W 2479   0.618   1.067   6.389
 1483W        W 2480   6.417   4.384   7.015
 1484W        W 2481   3.487   2.871   3.580
 1485W        W 2482   3.098   0.309   1.107
 1486W        W 2483   5.510   5.288   6.214
 1487W        W 2484   0.645   6.649   2.890
 1488W        W 2485   2.766   0.317   2.755
 1489W        W 2486   3.502   4.934   4.472
 1490W        W 2487   3.017   4.769   2.442
 1491W        W 2488   6.702   1.587   1.012
 1492W        W 2489   7.654   7.606   4.340
 1493W        W 2490   2.018   2.511   2.460
 1494W        W 2491   6.307   0.071   1.782
 1495W        W 2492   5.339   2.579   3.728
 1496W        W 2493   2.529   5.449   6.412
 1497W        W 2494   3.428   5.126   6.378
 1498W        W 2495   7.373   3.802   3.851
 1499W        W 2496   3.151   2.240   0.425
 1500W        W 2497   2.520   0.357   6.877
 1501W        W 2498   7.254   2.918   6.584
 1502W        W 2499   2.553   1.263   1.173
 1503W        W 2500   0.615   4.878   2.424
 1504W        W 2501   0.527   1.313   7.570
 1505W        W 2502   7.116   5.438   7.039
 1506W        W 2503   1.996   0.039   3.378
 1507W        W 2504   7.485   2.874   6.173
 1508W        W 2505   7.608   5.585   6.318
 1509W        W 2506   0.213   6.878   1.741
 1510W        W 2507   6.753   7.597   4.938
 1511W        W 2508   3.436   4.257   2.072
 1512W        W 2509   7.335   1.510   1.843
 1513W        W 2510   0.624   7.690   4.069
 1514W        W 2511   1.189   5.528   3.936
 1515W        W 2512   3.193   1.760   0.687
 1516W        W 2513   3.407   4.553   0.697
 1517W        W 2514   4.816   2.432   7.080
 1518W        W 2515   0.464   4.182   5.391
 1519W        W 2516   5.085   2.746   4.577
 1520W        W 2517   6.311   1.793   6.945
 1521W        W 2518   4.427   7.403   7.943
 1522W        W 2519   7.248   0.490   4.654
 1523W        W 2520   0.710   6.439   5.324
 1524W        W 2521   1.578   0.561   1.513
 1525W        W 2522   0.163   4.900   4.767
 1526W        W 2523   5.150   3.670   7.039
 1527W        W 2524   7.661   4.491   5.009
 1528W        W 2525   2.531   1.020   2.076
 1529W        W 2526   3.016   3.384   3.020
 1530W        W 2527   5.463   1.985   5.925
 1531W        W 2528   0.329   1.328   6.700
 1532W        W 2529   1.992   2.594   6.242
 1533W        W 2530   4.955   7.737   2.542
 1534W        W 2531   4.453   4.650   6.316
 1535W        W 2532   3.162   2.630   5.248
 1536W        W 2533   5.435   6.421   5.905
 1537W        W 2534   6.318   4.527   1.141
 1538W        W 2535   5.505   4.971   7.689
 1539W        W 2536   6.639   4.827   0.731
 1540W        W 2537   1.803   5.346   5.932
 1541W        W 2538   3.276   1.815   5.063
 1542W        W 2539   4.133   0.137   6.210
 1543W        W 2540   1.441   0.409   2.745
 1544W        W 2541   7.056   0.768   6.982
 1545W        W 2542   5.358   4.297   3.635
 1546W        W 2543   7.061   0.525   2.126
 1547W        W 2544   0.576   4.406   7.164
 1548W        W 2545   1.734   0.332   7.420
 1549W        W 2546   2.660   5.098   7.919
 1550W        W 2547   1.878   5.033   5.482
 1551W        W 2548   5.772   2.401   0.733
 1552W        W 2549   4.438   5.155   5.178
 1553W        W 2550   2.671   1.960   6.346
 1554W        W 2551   2.391   3.822   4.472
 1555W        W 2552   0.692   1.024   3.893
 1556W        W 2553   7.767   7.646   2.235
 1557W        W 2554   3.205   0.791   3.265
 1558W        W 2555   5.526   5.410   6.960
 1559W        W 2556   1.990   2.427   0.388
 1560W        W 2557   2.868   5.553   4.098
 1561W        W 2558   0.980   5.608   5.702
 1562W        W 2559   5.858   2.253   5.700
 1563W        W 2560   0.274   4.709   0.782
 1564W        W 2561   2.491   4.948   4.695
 1565W        W 2562   2.467   0.548   1.911
 1566W        W 2563   2.116   7.090   7.854
 1567W        W 2564   2.000   6.580   3.082
 1568W        W 2565   1.486   6.327   1.615
 1569W        W 2566   6.531   4.885   2.258
 1570W        W 2567   2.016   0.649   2.763
 1571W        W 2568   0.776   7.026   3.448
 1572W        W 2569   6.257   0.049   7.804
 1573W        W 2570   2.769   2.332   3.953
 1574W        W 2571   3.516   7.607   4.272
 1575W        W 2572   3.424   6.925   3.613
 1576W        W 2573   0.483   0.297   6.555
 1577W        W 2574   1.912   1.926   2.155
 1578W        W 2575   3.943   1.522   7.879
 1579W        W 2576   4.429   4.711   7.357
 1580W        W 2577   1.396   6.712   7.553
 1581W        W 2578   4.099   3.364   5.994
 1582W        W 2579   7.494   1.191   0.984
 1583W        W 2580   5.960   1.198   4.977
 1584W        W 2581   6.900   2.318   0.600
 1585W        W 2582   1.111   2.459   6.875
 1586W        W 2583   0.302   0.807   6.721
 1587W        W 2584   4.177   4.628   3.946
 1588W        W 2585   5.798   2.784   3.902
 1589W        W 2586   7.073   4.583   3.715
 1590W        W 2587   7.179   3.464   7.307
 1591W        W 2588   1.249   4.190   0.839
 1592W        W 2589   4.097   2.644   2.627
 1593W        W 2590   4.638   6.353   5.644
 1594W        W 2591   3.580   3.200   1.064
 1595W        W 2592   3.843   0.785   5.595
 1596W        W 2593   2.521   4.185   0.344
 1597W        W 2594   3.114   6.868   0.871
 1598W        W 2595   1.413   2.944   7.000
 1599W        W 2596   5.574   2.616   4.746
 1600W        W 2597   3.474   0.799   4.361
 1601W        W 2598   2.069   7.374   4.854
 1602W        W 2599   7.237   3.157   3.177
 1603W        W 2600   1.110   1.259   3.675
 1604W        W 2601   5.261   0.686   1.193
 1605W        W 2602   4.119   2.395   5.632
 1606W        W 2603   1.037   0.452   5.780
 1607W        W 2604   6.299   6.001   5.856
 1608W        W 2605   5.531   6.685   1.928
 1609W        W 2606   2.042   2.409   3.534
 1610W        W 2607   4.395   2.448   3.909
 1611W        W 2608   2.566   1.447   6.183
 1612W        W 2609   4.419   0.971   7.169
 1613W        W 2610   0.638   0.525   7.210
 1614W        W 2611   2.848   5.053   4.266
 1615W        W 2612   5.473   6.391   4.374
 1616W        W 2613   7.386   3.899   0.274
 1617W        W 2614   3.674   5.952   4.055
 1618W        W 2615   1.230   7.334   0.843
 1619W        W 2616   1.219   1.645   0.593
 1620W        W 2617   3.288   3.889   5.962
 1621W        W 2618   7.706   2.435   2.812
 1622W        W 2619   0.890   2.120   4.923
 1623W        W 2620   2.443   6.161   5.267
 1624W        W 2621   1.811   5.290   6.790
 1625W        W 2622   3.406   2.905   0.505
 1626W        W 2623   5.567   7.750   2.973
 1627W        W 2624   4.133   5.179   7.571
 1628W        W 2625   2.783   3.019   2.816
 1629W        W 2626   1.930   7.493   5.355
 1630W        W 2627   0.612   2.337   0.724
 1631W        W 2628   4.255   5.130   6.119
 1632W        W 2629   6.893   2.676   4.015
 1633W        W 2630   7.917   1.335   0.567
 1634W        W 2631   2.199   1.995   6.868
 1635W        W 2632   0.589   3.749   2.325
 1636W        W 2633   5.467   4.137   5.269
 1637W        W 2634   7.769   0.007   0.609
 1638W        W 2635   3.719   0.018   3.235
 1639W        W 2636   4.320   7.270   0.451
 1640W        W 2637   5.418   6.375   7.265
 1641W        W 2638   4.813   4.765   3.028
 1642W        W 2639   2.061   6.437   0.850
 1643W        W 2640   2.863   5.175   5.543
 1644W        W 2641   0.153   2.682   0.156
 1645W        W 2642   2.775   4.943   2.837
 1646W        W 2643   2.021   3.080   1.712
 1647W        W 2644   6.124   0.950   6.361
 1648W        W 2645   7.318   7.049   6.474
 1649W        W 2646   4.045   6.518   2.556
 1650W        W 2647   3.916   2.169   2.571
 1651W        W 2648   0.726   0.133   1.450
 1652W        W 2649   4.917   4.577   6.107
 1653W        W 2650   5.090   2.202   1.444
 1654W        W 2651   4.726   6.268   3.282
 1655W        W 2652   2.015   3.447   4.292
 1656W        W 2653   0.942   0.045   7.397
 1657W        W 2654   1.862   7.796   7.231
 1658W        W 2655   0.938   2.908   6.753
 1659W        W 2656   3.070   3.944   5.142
 1660W        W 2657   4.512   0.027   1.725
 1661W        W 2658   0.766   6.490   4.750
 1662W        W 2659   6.610   2.008   7.665
 1663W        W 2660   5.943   7.490   2.121
 1664W        W 2661   3.714   6.869   0.295
 1665W        W 2662   4.883   0.308   0.446
 1666W        W 2663   2.308   3.787   7.320
 1667W        W 2664   2.179   4.201   5.958
 1668W        W 2665   4.270   4.141   6.190
 1669W        W 2666   4.616   1.846   1.382
 1670W        W 2667   2.951   1.450   3.834
 1671W        W 2668   1.293   4.122   1.702
 1672W        W 2669   1.215   3.061   5.914
 1673W        W 2670   1.364   0.711   1.909
 1674W        W 2671   0.454   0.381   2.065
 1675W        W 2672   2.170   4.913   3.719
 1676W        W 2673   5.205   3.388   0.588
 1677W        W 2674   4.047   6.348   3.892
 1678W        W 2675   4.296   3.258   4.496
 1679W        W 2676   3.852   3.025   1.763
 1680W        W 2677   3.671   7.465   4.715
 1681W        W 2678   4.329   4.651   0.978
 1682W        W 2679   0.715   6.990   4.646
 1683W        W 2680   4.883   4.704   7.157
 1684W        W 2681   6.255   2.020   4.540
 1685W        W 2682   0.548   2.462   1.569
 1686W        W 2683   4.487   5.047   1.235
 1687W        W 2684   2.172   6.763   0.433
 1688W        W 2685   2.230   5.879   0.403
 1689W        W 2686   1.522   4.102   4.276
 1690W        W 2687   0.988   3.514   5.086
 1691W        W 2688   2.072   5.509   5.415
 1692W        W 2689   6.074   4.177   2.809
 1693W        W 2690   4.665   1.165   0.297
 1694W        W 2691   0.621   6.282   2.585
 1695W        W 2692   4.929   5.654   6.654
 1696W        W 2693   4.505   1.092   6.669
 1697W        W 2694   0.290   6.139   6.042
 1698W        W 2695   7.285   7.605   3.871
 1699W        W 2696   6.005   7.506   5.724
 1700W        W 2697   3.982   4.589   2.126
 1701W        W 2698   5.631   0.344   2.737
 1702W        W 2699   5.787   1.949   5.289
 1703W        W 2700   3.972   0.976   2.861
 1704W        W 2701   7.803   0.754   4.114
 1705W        W 2702   2.352   5.459   0.670
 1706W        W 2703   1.368   7.756   1.100
 1707W        W 2704   4.551   5.998   4.611
 1708W        W 2705   0.932   1.536   7.806
 1709W        W 2706   1.355   7.960   7.427
 1710W        W 2707   5.969   2.937   7.246
 1711W        W 2708   3.856   3.053   6.327
 1712W        W 2709   2.370   6.774   1.299
 1713W        W 2710   4.830   1.667   0.222
 1714W        W 2711   3.657   1.297   6.978
 1715W        W 2712   6.983   6.902   2.143
 1716W        W 2713   3.032   2.300   0.911
 1717W        W 2714   3.076   6.488   3.479
 1718W        W 2715   3.312   3.741   7.089
 1719W        W 2716   3.918   2.826   0.213
 1720W        W 2717   4.656   6.791   7.052
 1721W        W 2718   3.806   6.906   2.221
 1722W        W 2719   7.464   4.337   1.413
 1723W        W 2720   1.634   1.361   7.526
 1724W        W 2721   6.781   5.229   7.787
 1725W        W 2722   0.824   4.641   7.502
 1726W        W 2723   0.809   6.249   6.416
 1727W        W 2724   1.505   1.445   5.910
 1728W        W 2725   2.334   4.612   3.045
 1729W        W 2726   6.421   3.439   1.378
 1730W        W 2727   2.523   3.767   3.990
 1731W        W 2728   5.718   6.797   7.143
 1732W        W 2729   4.141   2.110   4.654
 1733W        W 2730   3.156   3.795   2.145
 1734W        W 2731   7.337   2.077   0.571
 1735W        W 2732   7.699   6.299   0.657
 1736W        W 2733   5.039   2.898   5.793
 1737W        W 2734   6.321   3.321   0.828
 1738W        W 2735   1.000   2.528   3.516
 1739W        W 2736   5.976   1.385   1.665
 1740W        W 2737   2.449   1.452   6.961
 1741W        W 2738   7.434   7.999   7.757
 1742W        W 2739   6.953   3.751   4.740
 1743W        W 2740   3.286   7.186   5.262
 1744W        W 2741   3.228   1.384   4.333
 1745W        W 2742   1.714   7.015   3.110
 1746W        W 2743   4.507   1.992   3.671
 1747W        W 2744   4.557   0.474   6.112
 1748W        W 2745   2.732   1.795   4.676
 1749W        W 2746   3.501   5.123   1.203
 1750W        W 2747   0.218   3.341   0.548
 1751W        W 2748   1.149   1.280   0.176
 1752W        W 2749   6.651   5.012   3.663
 1753W        W 2750   2.243   6.374   6.846
 1754W        W 2751   3.839   5.018   1.902
 1755W        W 2752   6.737   1.683   5.535
 1756W        W 2753   2.236   1.807   3.504
 1757W        W 2754   6.465   4.263   1.682
 1758W        W 2755   4.609   3.604   7.491
 1759W        W 2756   0.145   7.014   7.565
 1760W        W 2757   6.803   1.985   6.028
 1761W        W 2758   6.118   6.671   2.613
 1762W        W 2759   1.076   6.421   0.699
 1763W        W 2760   4.283   4.278   0.635
 1764W        W 2761   3.646   5.627   4.519
 1765W        W 2762   0.041   3.567   4.054
 1766W        W 2763   7.584   1.423   3.453
 1767W        W 2764   5.680   3.808   3.481
 1768W        W 2765   2.062   0.753   5.628
 1769W        W 2766   6.958   3.903   5.267
 1770W        W 2767   1.268   3.395   4.717
 1771W        W 2768   4.620   4.195   1.225
 1772W        W 2769   0.211   6.146   2.027
 1773W        W 2770   4.886   3.186   5.348
 1774W        W 2771   3.319   6.605   1.799
 1775W        W 2772   0.096   0.840   5.805
 1776W        W 2773   3.081   6.574   6.422
 1777W        W 2774   5.625   4.828   4.497
 1778W        W 2775   1.130   4.680   3.813
 1779W        W 2776   5.034   5.779   4.941
 1780W        W 2777   4.080   1.861   5.925
 1781W        W 2778   6.219   3.480   1.869
 1782W        W 2779   0.039   1.014   4.501
 1783W        W 2780   3.275   5.192   5.873
 1784W        W 2781   1.488   3.470   6.015
 1785W        W 2782   5.521   7.260   0.821
 1786W        W 2783   6.354   2.104   5.081
 1787W        W 2784   1.212   4.380   1.303
 1788W        W 2785   6.844   4.263   6.637
 1789W        W 2786   1.089   6.075   1.719
 1790W        W 2787   4.371   5.161   7.115
 1791W        W 2788   2.051   0.698   1.134
 1792W        W 2789   5.958   1.234   0.640
 1793W        W 2790   7.117   4.665   0.600
 1794W        W 2791   5.474   0.387   4.764
 1795W        W 2792   7.461   4.369   3.499
 1796W        W 2793   5.412   4.293   0.654
 1797W        W 2794   5.084   2.527   6.522
 1798W        W 2795   2.245   1.882   6.034
 1799W        W 2796   1.216   2.837   3.160
 1800W        W 2797   3.278   0.957   6.817
 1801W        W 2798   7.207   7.464   0.255
 1802W        W 2799   7.474   4.896   3.837
 1803W        W 2800   0.639   0.516   3.984
 1804W        W 2801   5.772   5.408   1.892
 1805W        W 2802   0.563   6.360   6.866
 1806W        W 2803   0.231   0.396   6.987
 1807W        W 2804   4.848   2.928   6.281
 1808W        W 2805   1.862   5.139   2.330
 1809W        W 2806   5.347   1.805   7.285
 1810W        W 2807   4.147   1.825   2.859
 1811W        W 2808   2.121   5.639   6.736
 1812W        W 2809   0.173   6.455   2.522
 1813W        W 2810   3.278   2.746   0.980
 1814W        W 2811   0.910   2.543   2.820
 1815W        W 2812   7.288   0.628   2.954
 1816W        W 2813   5.340   0.979   6.624
 1817W        W 2814   6.087   0.257   5.507
 1818W        W 2815   1.905   5.102   4.144
 1819W        W 2816   6.699   5.577   6.068
 1820W        W 2817   3.148   2.064   6.582
 1821W        W 2818   7.590   4.065   6.029
 1822W        W 2819   7.778   2.212   3.494
 1823W        W 2820   7.161   2.308   6.846
 1824W        W 2821   5.751   4.509   2.904
 1825W        W 2822   1.516   6.114   0.282
 1826W        W 2823   2.008   2.416   2.989
 1827W        W 2824   6.247   5.436   5.905
 1828W        W 2825   0.508   3.635   5.074
 1829W        W 2826   5.797   3.576   0.022
 1830W        W 2827   6.622   0.755   5.958
 1831W        W 2828   2.090   3.210   2.385
 1832W        W 2829   3.004   6.184   6.099
 1833W        W 2830   1.817   4.992   1.822
 1834W        W 2831   6.064   3.808   1.584
 1835W        W 2832   5.454   0.482   0.221
 1836W        W 2833   2.298   0.101   5.777
 1837W        W 2834   4.674   1.634   4.049
 1838W        W 2835   4.324   1.275   2.658
 1839W        W 2836   6.648   5.476   3.956
 1840W        W 2837   3.206   0.200   7.426
 1841W        W 2838   3.348   5.392   4.159
 1842W        W 2839   3.873   3.403   4.280
 1843W        W 2840   2.171   3.129   1.158
 1844W        W 2841   0.761   5.834   1.365
 1845W        W 2842   0.252   6.321   5.505
 1846W        W 2843   0.999   1.575   1.240
 1847W        W 2844   2.669   5.857   0.711
 1848W        W 2845   2.109   6.761   4.220
 1849W        W 2846   1.855   0.008   4.644
 1850W        W 2847   1.808   0.282   6.695
 1851W        W 2848   4.581   3.576   0.203
 1852W        W 2849   4.955   7.670   5.810
 1853W        W 2850   6.068   6.120   1.895
 1854W        W 2851   3.845   4.224   0.864
 1855W        W 2852   3.553   7.069   3.098
 1856W        W 2853   0.902   5.098   5.379
 1857W        W 2854   0.218   5.814   7.459
 1858W        W 2855   3.240   5.366   7.827
 1859W        W 2856   6.828   2.538   2.613
 1860W        W 2857   7.382   1.826   7.628
 1861W        W 2858   7.585   2.101   4.553
 1862W        W 2859   3.335   7.377   3.873
 1863W        W 2860   1.988   3.482   3.790
 1864W        W 2861   6.788   4.567   1.136
 1865W        W 2862   6.986   1.091   7.327
 1866W        W 2863   6.021   2.005   3.662
 1867W        W 2864   3.232   3.637   1.184
 1868W        W 2865   7.208   6.114   2.773
 1869W        W 2866   2.721   6.087   2.596
 1870W        W 2867   2.496   3.248   1.568
 1871W        W 2868   5.125   4.333   6.740
 1872W        W 2869   3.246   3.966   4.592
 1873W        W 2870   4.480   4.619   1.488
 1874W        W 2871   7.046   1.351   2.748
 1875W        W 2872   1.183   2.925   4.479
 1876W        W 2873   5.804   2.326   4.417
 1877W        W 2874   2.377   6.324   2.837
 1878W        W 2875   2.756   1.468   7.538
 1879W        W 2876   2.851   1.354   4.767
 1880W        W 2877   4.930   2.152   0.417
 1881W        W 2878   5.550   0.934   0.903
 1882W        W 2879   2.230   4.743   2.211
 1883W        W 2880   1.994   3.242   5.618
 1884W        W 2881   7.504   0.718   2.275
 1885W        W 2882   3.090   7.742   7.182
 1886W        W 2883   4.484   4.262   1.770
 1887W        W 2884   2.129   7.321   4.267
 1888W        W 2885   1.609   5.640   1.037
 1889W        W 2886   6.337   6.748   3.548
 1890W        W 2887   2.731   3.539   2.157
 1891W        W 2888   4.734   1.451   7.433
 1892W        W 2889   7.606   6.997   3.671
 1893W        W 2890   5.458   7.250   7.553
 1894W        W 2891   5.494   0.598   4.215
 1895W        W 2892   4.716   6.765   3.543
 1896W        W 2893   1.042   4.241   4.080
 1897W        W 2894   7.744   3.892   3.563
 1898W        W 2895   0.779   0.999   0.453
 1899W        W 2896   5.931   6.818   6.623
 1900W        W 2897   1.308   3.509   7.007
 1901W        W 2898   1.600   0.992   1.243
 1902W        W 2899   1.279   7.200   7.412
 1903W        W 2900   1.781   2.625   1.639
 1904W        W 2901   2.386   7.083   7.388
 1905W        W 2902   3.090   7.656   1.864
 1906W        W 2903   1.947   4.569   5.697
 1907W        W 2904   3.083   3.534   2.502
 1908W        W 2905   1.068   6.386   6.983
 1909W        W 2906   5.890   4.705   6.356
 1910W        W 2907   1.229   0.181   0.542
 1911W        W 2908   1.669   5.554   4.272
 1912W        W 2909   1.354   1.459   6.841
 1913W        W 2910   1.082   0.725   7.076
 1914W        W 2911   0.538   5.265   0.141
 1915W        W 2912   6.805   6.437   2.152
 1916W        W 2913   3.837   6.798   3.835
 1917W        W 2914   7.244   0.813   4.263
 1918W        W 2915   5.303   5.041   3.127
 1919W        W 2916   2.739   3.922   6.057
 1920W        W 2917   0.376   5.804   6.950
 1921W        W 2918   1.110   3.821   1.276
 1922W        W 2919   1.421   1.628   3.957
 1923W        W 2920   0.104   6.058   0.834
 1924W        W 2921   5.507   5.082   5.500
 1925W        W 2922   3.947   3.026   4.696
 1926W        W 2923   5.989   6.834   2.167
 1927W        W 2924   1.529   5.814   1.707
 1928W        W 2925   6.058   0.478   4.867
 1929W        W 2926   7.475   1.578   0.488
 1930W        W 2927   3.558   2.223   5.276
 1931W        W 2928   6.088   4.661   1.547
 1932W        W 2929   4.373   0.793   0.964
 1933W        W 2930   4.092   1.777   3.399
 1934W        W 2931   0.644   2.928   1.359
 1935W        W 2932   6.453   3.035   7.293
 1936W        W 2933   4.664   1.779   1.867
 1937W        W 2934   6.258   2.288   0.773
 1938W        W 2935   7.704   1.951   6.328
 1939W        W 2936   5.886   0.027   5.063
 1940W        W 2937   0.372   2.585   6.091
 1941W        W 2938   0.018   7.813   7.121
 1942W        W 2939   7.154   1.682   3.069
 1943W        W 2940   1.773   5.616   6.378
 1944W        W 2941   1.520   5.386   2.095
 1945W        W 2942   1.019   1.694   5.050
 1946W        W 2943   2.013   0.075   6.290
 1947W        W 2944   7.173   7.619   3.381
 1948W        W 2945   7.083   1.412   3.457
 1949W        W 2946   2.583   0.053   0.162
 1950W        W 2947   2.198   3.979   4.941
 1951W        W 2948   7.267   2.039   4.888
 1952W        W 2949   7.338   6.605   1.920
 1953W        W 2950   5.544   1.009   4.693
 1954W        W 2951   1.641   7.805   5.591
 1955W        W 2952   5.860   1.826   3.177
 1956W        W 2953   4.464   2.025   0.416
 1957W        W 2954   1.119   1.322   1.653
 1958W        W 2955   6.616   3.000   2.510
 1959W        W 2956   1.498   6.300   7.258
 1960W        W 2957   7.880   4.695   2.447
 1961W        W 2958   1.089   0.951   6.147
 1962W        W 2959   7.939   7.609   1.269
 1963W        W 2960   7.814   6.561   6.840
 1964W        W 2961   4.960   4.899   5.403
 1965W        W 2962   3.399   1.465   7.873
 1966W        W 2963   4.192   6.397   4.677
 1967W        W 2964   0.905   2.939   1.780
 1968W        W 2965   1.069   1.086   6.610
 1969W        W 2966   2.942   1.370   0.471
 1970W        W 2967   7.490   3.705   5.539
 1971W        W 2968   7.928   7.158   1.884
 1972W        W 2969   3.392   6.196   5.279
 1973W        W 2970   6.058   4.792   2.478
 1974W        W 2971   2.781   0.949   5.994
 1975W        W 2972   6.084   7.280   4.401
 1976W        W 2973   6.257   2.546   7.049
 1977W        W 2974   4.510   0.641   0.463
 1978W        W 2975   3.231   4.870   3.951
 1979W        W 2976   2.786   2.278   2.540
 1980W        W 2977   1.111   5.001   6.637
 1981W        W 2978   1.914   4.505   0.423
 1982W        W 2979   4.808   0.959   5.238
 1983W        W 2980   6.547   1.250   2.513
 1984W        W 2981   3.953   4.801   4.660
 1985W        W 2982   2.064   5.285   4.671
 1986W        W 2983   0.980   5.934   6.746
 1987W        W 2984   4.230   3.791   5.564
 1988W        W 2985   7.683   7.643   1.674
 1989W        W 2986   4.058   2.877   5.157
 1990W        W 2987   0.227   0.752   3.516
 1991W        W 2988   2.263   0.605   6.523
 1992W        W 2989   0.232   0.842   4.000
 1993W        W 2990   6.693   0.490   2.870
 1994W        W 2991   2.684   4.019   1.933
 1995W        W 2992   1.815   1.539   3.692
 1996W        W 2993   2.143   5.431   0.147
 1997W        W 2994   6.948   5.099   0.420
 1998W        W 2995   4.020   3.477   7.739
 1999W        W 2996   2.827   0.854   6.900
 2000W        W 2997   4.912   7.167   6.819
 2001W        W 2998   7.252   3.724   3.317
 2002W        W 2999   0.162   1.208   6.194
 2003W        W 3000   4.949   4.012   3.649
 2004W        W 3001   0.939   2.608   1.054
 2005W        W 3002   6.930   3.290   1.548
 2006W        W 3003   5.167   2.924   7.698
 2007W        W 3004   6.875   2.443   7.941
 2008W        W 3005   2.224   7.372   2.325
 2009W        W 3006   1.354   6.380   3.694
 2010W        W 3007   0.232   0.326   0.117
 2011W        W 3008   6.595   7.303   4.501
 2012W        W 3009   7.065   3.438   6.826
 2013W        W 3010   2.483   2.831   2.485
 2014W        W 3011   4.043   3.532   1.679
 2015W        W 3012   2.497   5.128   0.319
 2016W        W 3013   5.769   2.356   6.202
 2017W        W 3014   4.160   1.781   2.363
 2018W        W 3015   6.145   3.224   7.673
 2019W        W 3016   5.229   1.415   3.787
 2020W        W 3017   2.883   2.815   3.299
 2021W        W 3018   4.945   3.942   1.648
 2022W        W 3019   6.393   6.526   5.815
 2023W        W 3020   1.610   4.718   1.373
 2024W        W 3021   1.421   4.692   0.411
 2025W        W 3022   5.711   2.009   6.919
 2026W        W 3023   3.969   2.968   3.260
 2027W        W 3024   0.714   2.734   4.520
 2028W        W 3025   0.744   3.989   0.786
 2029W        W 3026   0.895   3.346   2.040
 2030W        W 3027   6.964   1.535   2.299
 2031W        W 3028   1.916   6.162   6.509
 2032W        W 3029   0.810   3.740   4.701
 2033W        W 3030   3.886   2.596   6.532
 2034W        W 3031   4.173   0.688   4.726
 2035W        W 3032   6.142   3.025   2.139
 2036W        W 3033   0.879   4.754   4.268
 2037W        W 3034   7.896   6.912   3.206
 2038W        W 3035   5.367   4.123   7.115
 2039W        W 3036   6.887   0.308   4.326
 2040W        W 3037   6.764   7.893   6.301
 2041W        W 3038   2.869   5.454   3.157
 2042W        W 3039   0.456   6.649   3.371
 2043W        W 3040   6.847   7.061   6.775
 2044W        W 3041   6.100   5.880   4.204
 2045W        W 3042   5.428   4.338   6.311
 2046W        W 3043   0.696   2.593   5.201
 2047W        W 3044   4.785   7.683   3.005
 2048W        W 3045   3.725   7.776   2.289
 2049W        W 3046   3.485   1.510   4.750
 2050W        W 3047   6.052   5.610   7.202
 2051W        W 3048   5.622   2.695   7.608
 2052W        W 3049   0.203   4.385   2.512
 2053W        W 3050   7.213   2.023   6.405
 2054W        W 3051   3.345   1.759   6.980
 2055W        W 3052   7.265   3.383   4.131
 2056W        W 3053   0.897   2.437   1.927
 2057W        W 3054   6.744   5.944   5.570
 2058W        W 3055   3.267   7.841   2.957
 2059W        W 3056   4.155   3.388   0.822
 2060W        W 3057   1.011   4.268   3.553
 2061W        W 3058   4.041   0.098   2.881
 2062W        W 3059   5.980   0.222   6.923
 2063W        W 3060   1.931   5.643   1.890
 2064W        W 3061   5.361   5.747   4.392
 2065W        W 3062   5.443   6.904   6.586
 2066W        W 3063   5.150   4.302   1.191
 2067W        W 3064   7.346   5.819   4.287
 2068W        W 3065   2.175   4.301   4.528
 2069W        W 3066   5.490   1.311   1.813
 2070W        W 3067   1.715   3.751   2.946
 2071W        W 3068   1.969   0.800   7.492
 2072W        W 3069   5.755   4.057   4.010
 2073W        W 3070   6.375   0.152   3.029
 2074W        W 3071   6.007   2.726   6.585
 2075W        W 3072   5.124   7.519   0.590
 2076W        W 3073   6.940   7.160   3.148
 2077W        W 3074   2.343   4.822   4.155
 2078W        W 3075   0.904   0.203   6.894
 2079W        W 3076   6.977   2.464   1.216
 2080W        W 3077   4.050   4.918   1.443
 2081W        W 3078   1.003   7.335   3.802
 2082W        W 3079   7.680   2.976   3.495
 2083W        W 3080   6.036   4.268   4.576
 2084W        W 3081   0.184   4.545   7.415
 2085W        W 3082   2.150   0.807   5.092
 2086W        W 3083   5.449   2.810   6.303
 2087W        W 3084   0.665   0.563   4.547
 2088W        W 3085   1.060   6.492   1.365
 2089W        W 3086   5.555   7.621   7.290
 2090W        W 3087   3.691   5.193   2.841
 2091W        W 3088   6.516   0.704   5.207
 2092W        W 3089   7.109   0.781   0.947
 2093W        W 3090   7.685   3.752   0.675
 2094W        W 3091   7.342   4.455   4.127
 2095W        W 3092   0.872   0.546   1.706
 2096W        W 3093   7.572   0.771   0.087
 2097W        W 3094   3.516   5.082   0.621
 2098W        W 3095   5.756   2.698   0.226
 2099W        W 3096   6.722   6.583   0.658
 2100W        W 3097   1.899   2.264   4.275
 2101W        W 3098   6.558   6.847   0.143
 2102W        W 3099   0.443   7.415   7.157
 2103W        W 3100   1.786   7.842   0.605
 2104W        W 3101   1.247   2.453   5.273
 2105W        W 3102   7.451   7.665   4.820
 2106W        W 3103   2.120   6.678   2.532
 2107W        W 3104   5.907   4.243   7.130
 2108W        W 3105   6.799   7.672   5.475
 2109W        W 3106   4.331   5.525   0.889
 2110W        W 3107   2.074   1.051   0.724
 2111W        W 3108   7.492   0.128   5.132
 2112W        W 3109   5.073   7.462   4.394
 2113W        W 3110   6.397   7.263   3.116
 2114W        W 3111   5.363   1.553   5.650
 2115W        W 3112   5.110   0.027   7.707
 2116W        W 3113   3.310   5.472   0.875
 2117W        W 3114   5.725   3.801   4.419
 2118W        W 3115   4.911   1.143   4.080
 2119W        W 3116   3.717   5.742   5.093
 2120W        W 3117   4.792   2.132   4.068
 2121W        W 3118   7.123   6.255   4.071
 2122W        W 3119   7.317   7.223   4.236
 2123W        W 3120   1.492   0.154   5.789
 2124W        W 3121   0.327   2.872   7.453
 2125W        W 3122   2.571   4.005   2.386
 2126W        W 3123   1.078   7.080   2.087
 2127W        W 3124   0.613   0.002   0.178
 2128W        W 3125   6.944   3.436   0.304
 2129W        W 3126   6.871   3.910   6.229
 2130W        W 3127   2.419   6.278   0.534
 2131W        W 3128   7.835   2.327   2.343
 2132W        W 3129   2.330   4.349   0.738
 2133W        W 3130   4.846   5.551   4.475
 2134W        W 3131   5.207   3.082   6.648
 2135W        W 3132   3.010   2.529   6.167
 2136W        W 3133   1.520   3.293   3.084
 2137W        W 3134   5.039   4.198   2.823
 2138W        W 3135   7.788   2.970   6.560
 2139W        W 3136   6.707   0.517   4.802
 2140W        W 3137   4.422   0.979   3.282
 2141W        W 3138   4.621   4.225   5.770
 2142W        W 3139   1.565   6.430   4.329
 2143W        W 3140   0.408   0.875   3.054
 2144W        W 3141   6.818   5.697   1.894
 2145W        W 3142   4.923   0.493   1.603
 2146W        W 3143   6.733   6.893   7.191
 2147W        W 3144   5.080   6.180   0.174
 2148W        W 3145   1.728   0.347   1.988
 2149W        W 3146   1.136   2.339   1.479
 2150W        W 3147   4.916   3.628   2.192
 2151W        W 3148   4.574   7.926   4.492
 2152W        W 3149   4.453   1.194   1.762
 2153W        W 3150   3.291   6.397   4.633
 2154W        W 3151   6.050   6.236   2.412
 2155W        W 3152   3.663   7.116   1.159
 2156W        W 3153   0.318   6.306   3.936
 2157W        W 3154   1.314   4.224   6.464
 2158W        W 3155   5.599   6.659   2.415
 2159W        W 3156   7.719   2.776   5.212
 2160W        W 3157   6.565   1.234   0.507
 2161W        W 3158   6.858   0.999   4.632
 2162W        W 3159   6.632   4.112   7.472
 2163W        W 3160   4.568   6.102   7.586
 2164W        W 3161   6.335   5.825   4.635
 2165W        W 3162   4.731   1.141   2.898
 2166W        W 3163   1.793   7.700   4.061
 2167W        W 3164   7.566   3.554   1.996
 2168W        W 3165   5.144   0.091   0.880
 2169W        W 3166   5.644   4.654   5.854
 2170W        W 3167   6.440   5.876   3.756
 2171W        W 3168   7.455   4.821   1.507
 2172W        W 3169   7.360   2.670   0.803
 2173W        W 3170   7.054   1.237   0.668
 2174W        W 3171   3.747   0.504   7.963
 2175W        W 3172   0.305   2.608   4.757
 2176W        W 3173   3.042   6.882   7.897
 2177W        W 3174   4.836   0.914   2.460
 2178W        W 3175   4.485   1.081   3.947
 2179W        W 3176   1.196   2.100   3.814
 2180W        W 3177   2.814   2.144   1.301
 2181W        W 3178   7.560   2.897   0.353
 2182W        W 3179   3.531   2.557   3.964
 2183W        W 3180   4.115   3.401   3.527
 2184W        W 3181   4.010   0.363   7.172
 2185W        W 3182   2.665   1.281   2.603
 2186W        W 3183   6.451   7.251   5.908
 2187W        W 3184   4.643   2.299   1.643
 2188W        W 3185   5.734   6.775   3.586
 2189W        W 3186   1.245   1.892   7.627
 2190W        W 3187   6.143   5.036   1.992
 2191W        W 3188   3.060   7.139   1.803
 2192W        W 3189   7.712   2.916   1.059
 2193W        W 3190   6.502   4.965   6.060
 2194W        W 3191   3.713   3.025   7.632
 2195W        W 3192   1.917   1.758   4.161
 2196W        W 3193   4.830   5.991   4.145
 2197W        W 3194   6.005   5.173   6.258
 2198W        W 3195   2.016   3.438   6.221
 2199W        W 3196   6.293   5.731   2.574
 2200W        W 3197   6.619   6.289   4.656
 2201W        W 3198   6.605   0.380   5.674
 2202W        W 3199   1.946   6.233   2.305
 2203W        W 3200   6.194   2.331   4.114
 2204W        W 3201   3.845   7.229   3.597
 2205W        W 3202   3.094   5.030   7.484
 2206W        W 3203   1.483   2.462   2.911
 2207W        W 3204   7.127   5.552   6.250
 2208W        W 3205   6.832   3.459   3.281
 2209W        W 3206   7.644   1.662   4.360
 2210W        W 3207   4.527   7.290   3.814
 2211W        W 3208   4.809   7.388   6.248
 2212W        W 3209   1.508   0.918   0.706
 2213W        W 3210   1.471   1.984   5.645
 2214W        W 3211   6.239   7.153   2.653
 2215W        W 3212   6.896   5.240   6.613
 2216W        W 3213   0.248   6.419   4.520
 2217W        W 3214   6.414   5.671   0.829
 2218W        W 3215   4.150   6.563   3.433
 2219W        W 3216   1.709   3.452   2.051
 2220W        W 3217   5.027   6.128   3.666
 2221W        W 3218   1.676   0.131   1.333
 2222W        W 3219   6.952   7.493   2.838
 2223W        W 3220   6.462   3.965   1.228
 2224W        W 3221   1.542   2.613   4.929
 2225W        W 3222   6.478   7.410   2.230
 2226W        W 3223   2.854   6.739   5.971
 2227W        W 3224   6.433   1.727   2.370
 2228W        W 3225   3.476   6.216   6.247
 2229W        W 3226   5.976   4.273   1.778
 2230W        W 3227   7.483   5.725   2.533
 2231W        W 3228   4.136   3.286   2.536
 2232W        W 3229   0.953   1.296   4.738
 2233W        W 3230   4.059   6.338   7.776
 2234W        W 3231   5.764   7.248   1.329
 2235W        W 3232   4.039   0.591   4.170
 2236W        W 3233   2.926   2.115   7.123
 2237W        W 3234   2.477   6.826   2.954
 2238W        W 3235   5.555   3.660   3.024
 2239W        W 3236   2.376   4.450   5.033
 2240W        W 3237   2.247   4.159   6.946
 2241W        W 3238   5.390   3.030   1.382
 2242W        W 3239   6.106   2.278   6.644
 2243W        W 3240   2.685   5.626   4.663
 2244W        W 3241   4.984   1.447   5.905
 2245W        W 3242   7.443   7.093   3.193
 2246W        W 3243   5.739   3.897   4.912
 2247W        W 3244   1.410   4.859   2.240
 2248W        W 3245   4.997   3.088   4.195
 2249W        W 3246   2.423   0.289   3.616
 2250W        W 3247   1.099   2.567   4.093
 2251W        W 3248   1.967   3.293   3.298
 2252W        W 3249   1.714   3.865   5.086
 2253W        W 3250   5.251   3.082   4.908
 2254W        W 3251   5.037   5.659   3.284
 2255W        W 3252   1.780   2.873   2.126
 2256W        W 3253   6.670   6.111   7.621
 2257W        W 3254   0.292   7.669   4.888
 2258W        W 3255   7.219   4.737   3.237
 2259W        W 3256   7.135   7.534   6.400
 2260W        W 3257   4.574   3.697   5.924
 2261W        W 3258   2.107   2.008   0.655
 2262W        W 3259   6.875   3.095   0.971
 2263W        W 3260   5.652   6.236   1.100
 2264W        W 3261   3.255   7.550   6.398
 2265W        W 3262   3.218   6.107   1.907
 2266W        W 3263   6.686   6.003   4.203
 2267W        W 3264   1.544   0.199   5.038
 2268W        W 3265   2.841   6.672   1.246
 2269W        W 3266   1.278   3.882   4.863
 2270W        W 3267   5.001   5.580   7.208
 2271W        W 3268   3.341   5.430   3.134
 2272W        W 3269   1.903   2.693   0.976
 2273W        W 3270   5.820   0.175   0.058
 2274W        W 3271   5.564   5.823   5.305
 2275W        W 3272   4.043   5.097   0.883
 2276W        W 3273   5.302   6.684   0.721
 2277W        W 3274   5.586   1.293   3.450
 2278W        W 3275   2.518   0.477   4.889
 2279W        W 3276   0.700   3.652   7.780
 2280W        W 3277   3.209   1.862   4.540
 2281W        W 3278   1.488   5.189   6.388
 2282W        W 3279   1.044   1.307   4.171
 2283W        W 3280   3.809   7.745   2.842
 2284W        W 3281   3.752   0.503   6.073
 2285W        W 3282   7.441   5.738   4.790
 2286W        W 3283   0.513   1.830   4.811
 2287W        W 3284   4.783   6.740   2.770
 2288W        W 3285   3.101   5.711   1.584
 2289W        W 3286   5.246   2.146   3.864
 2290W        W 3287   0.525   2.920   5.693
 2291W        W 3288   6.967   2.028   1.001
 2292W        W 3289   4.198   2.082   1.728
 2293W        W 3290   2.406   5.881   1.700
 2294W        W 3291   4.833   2.440   3.589
 2295W        W 3292   3.858   0.726   2.009
 2296W        W 3293   1.931   6.158   1.784
 2297W        W 3294   2.208   0.347   1.461
 2298W        W 3295   5.854   4.893   3.268
 2299W        W 3296   1.214   5.196   5.003
 2300W        W 3297   2.459   0.814   2.590
 2301W        W 3298   6.746   2.628   6.981
 2302W        W 3299   7.678   3.352   3.801
 2303W        W 3300   4.835   6.475   6.102
 2304W        W 3301   2.079   7.093   2.774
 2305W        W 3302   0.333   0.955   2.018
 2306W        W 3303   6.668   1.202   5.647
 2307W        W 3304   5.373   4.605   5.382
 2308W        W 3305   2.251   4.376   7.539
 2309W        W 3306   4.640   3.769   4.008
 2310W        W 3307   1.031   7.581   2.617
 2311W        W 3308   1.216   3.720   3.284
 2312W        W 3309   6.590   5.412   2.234
 2313W        W 3310   6.456   1.651   3.801
 2314W        W 3311   6.677   7.587   0.570
 2315W        W 3312   4.944   2.586   4.064
 2316W        W 3313   4.989   1.796   3.641
 2317W        W 3314   5.051   0.339   4.028
 2318W        W 3315   3.642   3.473   2.554
 2319W        W 3316   3.650   0.017   5.881
 2320W        W 3317   1.544   5.166   0.676
 2321W        W 3318   4.218   7.699   3.800
 2322W        W 3319   0.378   6.253   4.988
 2323W        W 3320   7.775   6.169   2.697
 2324W        W 3321   6.416   1.033   4.864
 2325W        W 3322   1.510   2.028   4.292
 2326W        W 3323   0.429   1.961   2.520
 2327W        W 3324   4.657   2.781   7.385
 2328W        W 3325   2.210   7.171   6.605
 2329W        W 3326   2.523   4.450   1.529
 2330W        W 3327   7.815   3.313   6.166
 2331W        W 3328   6.936   1.818   5.127
 2332W        W 3329   6.375   5.073   3.197
 2333W        W 3330   0.129   3.465   3.483
 2334W        W 3331   7.636   6.668   2.387
 2335W        W 3332   6.046   2.979   1.639
 2336W        W 3333   2.842   3.989   1.144
 2337W        W 3334   1.386   7.552   7.050
 2338W        W 3335   3.608   5.888   6.603
 2339W        W 3336   3.419   3.750   6.563
 2340W        W 3337   2.886   6.345   3.040
 2341W        W 3338   2.489   5.551   3.482
 2342W        W 3339   6.005   6.215   4.596
 2343W        W 3340   7.345   7.023   2.639
 2344W        W 3341   1.671   1.758   0.733
 2345W        W 3342   0.728   5.926   4.751
 2346W        W 3343   7.587   2.137   1.851
 2347W        W 3344   1.426   4.453   7.332
 2348W        W 3345   1.582   1.811   6.262
 2349W        W 3346   7.780   3.028   2.000
 2350W        W 3347   5.635   0.753   5.704
 2351W        W 3348   6.228   5.542   5.016
 2352W        W 3349   2.889   1.781   2.951
 2353W        W 3350   3.796   7.309   6.534
 2354W        W 3351   3.983   2.134   7.231
 2355W        W 3352   3.016   0.458   6.063
 2356W        W 3353   4.167   2.570   2.006
 2357W        W 3354   7.516   3.142   2.407
 2358W        W 3355   4.122   0.905   3.715
 2359W        W 3356   6.085   6.156   1.349
 2360W        W 3357   5.216   2.380   5.041
 2361W        W 3358   3.280   5.508   2.105
 2362W        W 3359   2.648   4.766   7.577
 2363W        W 3360   1.845   4.741   3.263
 2364W        W 3361   7.701   6.138   2.143
 2365W        W 3362   5.475   5.899   7.382
 2366W        W 3363   1.669   4.319   6.824
 2367W        W 3364   3.161   6.835   0.380
 2368W        W 3365   4.757   3.484   4.378
 2369W        W 3366   0.737   3.278   4.419
 2370W        W 3367   2.713   1.525   3.347
 2371W        W 3368   6.111   6.953   5.798
 2372W        W 3369   4.017   1.925   0.666
 2373W        W 3370   2.654   5.614   5.578
 2374W        W 3371   0.277   2.676   4.247
 2375W        W 3372   0.895   0.387   2.244
 2376W        W 3373   1.253   7.497   6.562
 2377W        W 3374   2.128   1.851   0.100
 2378W        W 3375   2.124   1.533   0.523
 2379W        W 3376   5.721   2.465   5.275
 2380W        W 3377   7.246   2.710   7.094
 2381W        W 3378   2.497   2.480   7.671
 2382W        W 3379   0.382   2.418   2.772
 2383W        W 3380   6.748   0.224   3.354
 2384W        W 3381   7.420   6.188   3.252
 2385W        W 3382   2.365   4.870   1.741
 2386W        W 3383   4.668   2.637   5.943
 2387W        W 3384   5.416   0.299   1.415
 2388W        W 3385   0.714   0.625   1.251
 2389W        W 3386   6.664   1.625   4.260
 2390W        W 3387   3.785   5.977   1.942
 2391W        W 3388   6.416   1.162   0.953
 2392W        W 3389   0.616   5.456   4.477
 2393W        W 3390   4.770   0.497   1.006
 2394W        W 3391   6.089   6.457   7.037
 2395W        W 3392   4.948   4.407   4.291
 2396W        W 3393   4.021   0.525   1.183
 2397W        W 3394   6.944   0.792   2.590
 2398W        W 3395   0.982   5.379   3.104
 2399W        W 3396   1.874   6.790   5.058
 2400W        W 3397   7.388   7.790   0.654
 2401W        W 3398   5.809   3.002   6.001
 2402W        W 3399   5.939   0.068   0.571
 2403W        W 3400   5.789   1.072   3.986
 2404W        W 3401   1.422   7.697   1.736
 2405W        W 3402   0.399   6.776   7.109
 2406W        W 3403   2.571   6.662   5.562
 2407W        W 3404   0.562   5.079   2.993
 2408W        W 3405   0.048   2.331   1.604
 2409W        W 3406   5.876   3.898   5.409
 2410W        W 3407   1.970   3.726   1.046
 2411W        W 3408   6.328   3.468   2.389
 2412W        W 3409   7.739   4.039   4.773
 2413W        W 3410   0.449   6.542   6.282
 2414W        W 3411   3.318   0.495   0.563
 2415W        W 3412   4.597   5.111   0.743
 2416W        W 3413   1.876   1.648   5.698
 2417W        W 3414   6.973   7.115   6.179
 2418W        W 3415   0.422   0.924   4.851
 2419W        W 3416   3.531   5.749   1.316
 2420W        W 3417   5.920   3.782   2.504
 2421W        W 3418   4.475   6.827   5.437
 2422W        W 3419   1.503   1.777   7.208
 2423W        W 3420   6.714   0.337   0.696
 2424W        W 3421   3.046   5.043   3.254
 2425W        W 3422   3.563   3.407   1.516
 2426W        W 3423   0.611   1.831   6.543
 2427W        W 3424   6.870   7.807   7.817
 2428W        W 3425   1.387   1.882   1.261
 2429W        W 3426   5.693   3.337   6.945
 2430W        W 3427   1.849   1.647   2.752
 2431W        W 3428   4.471   3.153   5.026
 2432W        W 3429   1.766   0.051   7.825
 2433W        W 3430   2.558   7.414   1.910
 2434W        W 3431   0.105   3.608   2.334
 2435W        W 3432   0.006   4.725   1.240
 2436W        W 3433   5.573   7.132   2.179
 2437W        W 3434   7.490   5.391   5.845
 2438W        W 3435   2.977   3.056   5.062
 2439W        W 3436   4.143   5.910   4.855
 2440W        W 3437   6.805   5.598   0.408
 2441W        W 3438   7.733   5.711   0.834
 2442W        W 3439   2.811   0.996   3.451
 2443W        W 3440   1.947   3.795   2.443
 2444W        W 3441   4.363   5.885   3.957
 2445W        W 3442   4.376   6.682   0.408
 2446W        W 3443   1.649   6.723   0.546
 2447W        W 3444   3.604   2.147   6.891
 2448W        W 3445   0.497   7.269   5.866
 2449W        W 3446   4.168   1.601   1.884
 2450W        W 3447   1.307   0.519   7.608
 2451W        W 3448   3.632   4.877   5.559
 2452W        W 3449   1.813   1.007   5.984
 2453W        W 3450   6.402   2.012   1.215
 2454W        W 3451   6.800   6.619   4.339
 2455W        W 3452   7.448   2.473   3.769
 2456W        W 3453   3.027   5.059   0.292
 2457W        W 3454   5.255   0.737   2.779
 2458W        W 3455   1.573   6.450   1.006
 2459W        W 3456   5.969   5.424   0.189
 2460W        W 3457   2.968   3.367   1.743
 2461W        W 3458   5.937   4.965   0.338
 2462W        W 3459   0.337   0.353   1.144
 2463W        W 3460   5.133   6.178   1.843
 2464W        W 3461   5.234   1.069   5.671
 2465W        W 3462   4.977   0.911   0.710
 2466W        W 3463   6.265   4.616   0.497
 2467W        W 3464   0.693   2.947   6.170
 2468W        W 3465   0.556   1.485   3.769
 2469W        W 3466   5.365   5.581   1.020
 2470W        W 3467   0.565   5.424   2.066
 2471W        W 3468   0.652   7.721   6.337
 2472W        W 3469   5.180   2.272   4.394
 2473W        W 3470   6.424   0.415   7.258
 2474W        W 3471   3.671   0.622   3.031
 2475W        W 3472   1.914   5.865   0.026
 2476W        W 3473   7.019   2.481   5.075
 2477W        W 3474   5.348   3.596   5.300
 2478W        W 3475   2.320   0.459   7.355
 2479W        W 3476   7.126   4.794   0.006
 2480W        W 3477   2.188   4.181   5.445
 2481W        W 3478   4.994   5.218   1.131
 2482W        W 3479   2.248   3.767   3.332
 2483W        W 3480   2.496   0.292   6.236
 2484W        W 3481   2.027   6.950   7.004
 2485W        W 3482   5.732   7.474   3.623
 2486W        W 3483   7.351   5.460   0.594
 2487W        W 3484   6.792   3.656   4.180
 2488W        W 3485   4.207   2.737   1.044
 2489W        W 3486   3.397   7.189   6.759
 2490W        W 3487   2.364   0.408   5.367
 2491W        W 3488   1.558   7.899   6.714
 2492W        W 3489   7.105   2.168   5.639
 2493W        W 3490   6.606   0.809   6.475
 2494W        W 3491   3.922   1.346   3.645
 2495W        W 3492   7.095   3.638   1.883
 2496W        W 3493   2.097   5.184   6.334
 2497W        W 3494   1.702   3.344   5.098
 2498W        W 3495   5.229   7.800   4.676
 2499W        W 3496   3.425   4.146   7.431
 2500W        W 3497   4.772   6.931   2.233
 2501W        W 3498   4.005   6.727   5.289
 2502W        W 3499   6.422   1.648   5.957
 2503W        W 3500   5.718   2.274   3.918
 2504W        W 3501   1.393   2.884   0.928
 2505W        W 3502   3.058   2.220   2.966
 2506W        W 3503   0.782   4.666   5.703
 2507W        W 3504   5.589   7.199   3.195
 2508W        W 3505   5.912   6.695   5.431
 2509W        W 3506   6.210   6.125   0.825
 2510W        W 3507   4.046   4.061   1.727
 2511W        W 3508   3.890   2.319   1.078
 2512W        W 3509   5.753   5.306   4.319
 2513W        W 3510   0.509   3.820   0.246
 2514W        W 3511   0.234   1.455   4.714
 2515W        W 3512   4.380   7.188   1.236
 2516W        W 3513   2.671   1.025   0.761
 2517W        W 3514   0.570   7.420   0.092
 2518W        W 3515   1.402   5.197   2.583
 2519W        W 3516   5.216   4.017   4.122
 2520W        W 3517   0.181   7.594   3.207
 2521W        W 3518   5.437   1.667   5.133
 2522W        W 3519   1.156   7.763   4.077
 2523W        W 3520   2.675   1.722   1.055
 2524W        W 3521   6.451   5.179   0.423
 2525W        W 3522   1.880   6.525   1.425
 2526W        W 3523   3.630   3.316   3.366
 2527W        W 3524   2.681   5.839   6.015
 2528W        W 3525   1.880   3.799   7.031
 2529W        W 3526   1.731   4.155   1.392
 2530W        W 3527   6.251   4.524   3.358
 2531W        W 3528   2.871   3.415   5.350
 2532W        W 3529   0.198   5.841   5.600
 2533W        W 3530   2.589   2.262   0.769
 2534W        W 3531   0.083   7.937   2.788
 2535W        W 3532   2.446   2.640   0.448
 2536W        W 3533   2.270   7.639   3.887
 2537W        W 3534   3.305   6.341   6.872
 2538W        W 3535   5.276   7.496   3.361
 2539W        W 3536   3.836   4.279   7.706
 2540W        W 3537   2.683   4.563   2.004
 2541W        W 3538   6.428   5.386   6.414
 2542W        W 3539   4.001   7.482   5.566
 2543W        W 3540   1.161   0.759   2.502
 2544W        W 3541   4.167   6.508   5.791
 2545W        W 3542   0.785   0.665   6.697
 2546W        W 3543   1.960   1.695   1.705
 2547W        W 3544   7.498   5.787   5.313
 2548W        W 3545   5.279   4.300   5.811
 2549W        W 3546   2.570   5.866   3.061
 2550W        W 3547   5.530   4.333   4.443
 2551W        W 3548   1.692   2.810   0.502
 2552W        W 3549   3.939   6.346   6.518
 2553W        W 3550   5.311   5.943   1.339
 2554W        W 3551   4.580   5.062   2.598
 2555W        W 3552   4.269   3.752   4.336
 2556W        W 3553   2.388   1.718   5.486
 2557W        W 3554   1.036   2.117   4.309
 2558W        W 3555   1.007   4.147   7.490
 2559W        W 3556   5.623   3.214   3.584
 2560W        W 3557   4.043   7.312   6.964
 2561W        W 3558   4.386   1.266   6.179
 2562W        W 3559   6.120   0.530   5.931
 2563W        W 3560   5.972   0.220   7.443
 2564W        W 3561   0.706   3.205   5.310
 2565W        W 3562   3.636   5.054   7.798
 2566W        W 3563   2.852   5.828   2.154
 2567W        W 3564   1.063   1.896   1.708
 2568W        W 3565   3.314   3.757   3.485
 2569W        W 3566   3.992   2.676   3.703
 2570W        W 3567   7.847   6.382   4.938
 2571W        W 3568   6.192   1.503   5.375
 2572W        W 3569   7.272   5.695   3.401
 2573W        W 3570   1.751   3.885   6.434
 2574W        W 3571   1.524   2.580   4.421
 2575W        W 3572   6.971   1.765   6.738
 2576W        W 3573   3.514   5.623   2.727
 2577W        W 3574   5.407   0.866   7.115
 2578W        W 3575   7.586   2.940   2.819
 2579W        W 3576   2.941   3.943   5.629
 2580W        W 3577   6.937   2.368   2.131
 2581W        W 3578   2.582   6.225   0.985
 2582W        W 3579   5.544   1.766   3.837
 2583W        W 3580   6.619   1.096   7.711
 2584W        W 3581   1.123   7.188   4.267
 2585W        W 3582   2.894   2.756   0.642
 2586W        W 3583   4.837   1.539   3.198
 2587W        W 3584   6.963   6.473   7.093
 2588W        W 3585   4.966   7.599   3.900
 2589W        W 3586   2.811   7.005   5.059
 2590W        W 3587   0.876   7.198   7.053
 2591W        W 3588   5.157   6.276   1.024
 2592W        W 3589   6.893   5.071   5.193
 2593W        W 3590   5.243   7.000   3.580
 2594W        W 3591   7.417   4.170   5.291
 2595W        W 3592   3.974   5.042   3.227
 2596W        W 3593   6.913   4.042   7.070
 2597W        W 3594   7.155   6.183   7.506
 2598W        W 3595   7.773   5.127   4.943
 2599W        W 3596   6.335   5.809   0.360
 2600W        W 3597   4.672   6.359   0.959
 2601W        W 3598   4.944   0.346   4.545
 2602W        W 3599   7.732   1.634   1.085
 2603W        W 3600   1.000   5.871   6.157
 2604W        W 3601   3.535   5.832   7.183
 2605W        W 3602   4.285   1.510   0.373
 2606W        W 3603   6.059   7.050   0.013
 2607W        W 3604   2.436   1.738   1.533
 2608W        W 3605   0.779   4.868   6.282
 2609W        W 3606   3.260   4.584   3.289
 2610W        W 3607   6.609   2.451   5.908
 2611W        W 3608   1.338   5.068   4.095
 2612W        W 3609   5.545   2.630   5.819
 2613W        W 3610   1.404   2.020   2.185
 2614W        W 3611   5.132   2.349   6.064
 2615W        W 3612   2.704   7.130   1.074
 2616W        W 3613   0.081   4.084   7.220
 2617W        W 3614   2.168   1.323   7.575
 2618W        W 3615   3.938   2.545   4.599
 2619W        W 3616   3.305   6.248   3.908
 2620W        W 3617   5.047   1.882   4.796
 2621W        W 3618   7.404   4.451   6.934
 2622W        W 3619   2.725   4.810   0.696
 2623W        W 3620   7.445   5.691   7.374
 2624W        W 3621   5.602   1.385   0.253
 2625W        W 3622   5.429   3.434   7.437
 2626W        W 3623   4.773   4.473   2.067
 2627W        W 3624   6.054   0.955   2.444
 2628W        W 3625   0.097   5.353   7.504
 2629W        W 3626   1.612   1.833   0.224
 2630W        W 3627   4.544   4.298   2.798
 2631W        W 3628   3.662   7.024   7.143
 2632W        W 3629   7.754   2.915   4.730
 2633W        W 3630   1.880   7.500   6.780
 2634W        W 3631   3.397   2.205   7.298
 2635W        W 3632   2.638   5.580   2.656
 2636W        W 3633   6.586   7.082   1.879
 2637W        W 3634   4.848   0.703   3.729
 2638W        W 3635   2.348   4.055   1.148
 2639W        W 3636   0.961   3.154   7.178
 2640W        W 3637   0.508   2.250   4.451
 2641W        W 3638   6.508   3.033   1.689
 2642W        W 3639   4.795   2.756   5.034
 2643W        W 3640   3.253   7.249   7.232
 2644W        W 3641   3.636   7.107   4.286
 2645W        W 3642   2.627   2.178   0.225
 2646W        W 3643   1.382   2.455   5.771
 2647W        W 3644   5.668   0.645   2.311
 2648W        W 3645   1.239   2.793   6.385
 2649W        W 3646   4.636   2.873   3.803
 2650W        W 3647   6.603   2.841   0.006
 2651W        W 3648   0.430   5.011   7.394
 2652W        W 3649   7.716   4.485   2.925
 2653W        W 3650   3.340   2.351   1.299
 2654W        W 3651   7.255   5.264   7.623
 2655W        W 3652   5.504   6.736   7.705
 2656W        W 3653   5.202   0.037   2.373
 2657W        W 3654   7.401   2.665   2.003
 2658W        W 3655   4.008   3.318   0.342
 2659W        W 3656   0.901   0.212   2.792
 2660W        W 3657   3.132   4.363   5.842
 2661W        W 3658   0.499   4.755   1.322
 2662W        W 3659   5.062   5.024   3.872
 2663W        W 3660   4.134   6.265   2.040
 2664W        W 3661   4.965   1.280   1.954
 2665W        W 3662   5.671   5.060   2.273
 2666W        W 3663   4.417   5.805   3.064
 2667W        W 3664   0.969   1.205   2.800
 2668W        W 3665   0.752   5.058   0.935
 2669W        W 3666   3.207   2.276   4.889
 2670W        W 3667   4.385   6.437   5.180
 2671W        W 3668   7.356   5.329   4.073
 2672W        W 3669   5.206   5.593   5.697
 2673W        W 3670   4.412   1.606   7.945
 2674W        W 3671   0.825   0.879   2.137
 2675W        W 3672   3.461   1.513   3.831
 2676W        W 3673   4.391   5.286   2.990
 2677W        W 3674   0.189   2.819   5.303
 2678W        W 3675   2.350   6.068   4.704
 2679W        W 3676   4.935   0.979   7.392
 2680W        W 3677   1.185   6.849   3.728
 2681W        W 3678   4.809   7.666   4.916
 2682W        W 3679   1.055   2.595   4.830
 2683W        W 3680   1.461   1.022   3.999
 2684W        W 3681   5.537   3.055   4.506
 2685W        W 3682   3.793   7.193   5.104
 2686W        W 3683   2.762   6.512   1.723
 2687W        W 3684   1.038   2.119   2.606
 2688W        W 3685   4.810   3.757   3.169
 2689W        W 3686   1.083   5.656   5.157
 2690W        W 3687   4.510   6.921   4.274
 2691W        W 3688   2.196   0.491   2.292
 2692W        W 3689   4.292   3.186   5.500
 2693W        W 3690   6.480   6.745   3.036
 2694W        W 3691   0.762   6.766   6.653
 2695W        W 3692   7.490   3.208   7.014
 2696W        W 3693   5.611   6.297   3.644
 2697W        W 3694   1.337   5.535   6.050
 2698W        W 3695   4.681   5.141   7.481
 2699W        W 3696   6.710   6.103   0.598
 2700W        W 3697   4.766   5.849   5.820
 2701W        W 3698   1.903   0.933   3.265
 2702W        W 3699   6.676   2.153   7.067
 2703W        W 3700   0.618   7.271   2.359
 2704W        W 3701   2.197   2.656   1.953
 2705W        W 3702   6.139   4.093   3.673
 2706W        W 3703   7.397   1.834   5.380
 2707W        W 3704   5.077   6.977   7.837
 2708W        W 3705   5.399   2.034   2.209
 2709W        W 3706   0.097   1.645   2.686
 2710W        W 3707   1.755   2.388   2.059
 2711W        W 3708   6.924   3.067   7.126
 2712W        W 3709   7.252   4.129   4.787
 2713W        W 3710   6.126   7.167   3.521
 2714W        W 3711   3.113   4.473   1.188
 2715W        W 3712   1.579   4.825   6.908
 2716W        W 3713   6.915   2.815   1.792
 2717W        W 3714   2.529   0.223   1.072
 2718W        W 3715   2.588   6.705   3.512
 2719W        W 3716   6.264   4.465   6.034
 2720W        W 3717   7.156   1.072   1.734
 2721W        W 3718   5.913   3.291   4.130
 2722W        W 3719   4.417   7.592   1.710
 2723W        W 3720   3.628   7.147   7.756
 2724W        W 3721   0.275   5.333   4.146
 2725W        W 3722   1.994   4.544   1.703
 2726W        W 3723   2.027   1.735   7.303
 2727W        W 3724   6.999   5.985   7.067
 2728W        W 3725   1.845   6.662   7.885
 2729W        W 3726   6.505   4.558   6.465
 2730W        W 3727   1.938   6.318   0.345
 2731W        W 3728   3.143   5.886   6.904
 2732W        W 3729   3.971   3.809   6.387
 2733W        W 3730   6.866   6.457   0.176
 2734W        W 3731   5.227   6.506   2.741
 2735W        W 3732   7.761   5.808   5.718
 2736W        W 3733   2.774   0.661   1.141
 2737W        W 3734   5.895   2.844   5.518
 2738W        W 3735   4.647   1.710   2.690
 2739W        W 3736   1.334   1.755   3.481
 2740W        W 3737   6.828   7.374   1.374
 2741W        W 3738   7.032   0.145   7.198
 2742W        W 3739   5.015   4.413   1.647
 2743W        W 3740   2.377   7.658   3.376
 2744W        W 3741   6.726   5.555   2.871
 2745W        W 3742   4.227   7.814   2.319
 2746W        W 3743   3.500   6.059   0.857
 2747W        W 3744   0.531   2.883   2.695
 2748W        W 3745   2.778   1.518   2.149
 2749W        W 3746   3.114   0.284   1.877
 2750W        W 3747   3.112   5.929   0.543
 2751W        W 3748   6.688   4.732   0.235
 2752W        W 3749   3.198   1.667   5.606
 2753W        W 3750   1.455   7.857   0.155
 2754W        W 3751   4.750   6.637   7.774
 2755W        W 3752   0.682   6.778   0.893
 2756W        W 3753   4.266   1.732   7.505
 2757W        W 3754   0.761   6.207   5.806
 2758W        W 3755   3.093   5.717   6.377
 2759W        W 3756   1.941   2.051   5.285
 2760W        W 3757   2.812   0.644   6.459
 2761W        W 3758   1.236   2.223   0.976
 2762W        W 3759   0.268   6.081   1.350
 2763W        W 3760   7.427   2.251   1.110
 2764W        W 3761   4.780   2.316   4.770
 2765W        W 3762   3.384   0.432   5.697
 2766W        W 3763   0.300   2.243   2.072
 2767W        W 3764   7.054   2.484   6.316
 2768W        W 3765   5.241   7.376   6.419
 2769W        W 3766   7.014   4.872   5.627
 2770W        W 3767   7.304   7.566   5.508
 2771W        W 3768   5.210   6.529   3.447
 2772W        W 3769   2.503   3.328   4.440
 2773W        W 3770   3.177   7.439   0.985
 2774W        W 3771   5.496   6.863   5.721
 2775W        W 3772   1.265   6.610   6.551
 2776W        W 3773   2.670   1.308   1.681
 2777W        W 3774   2.553   2.281   1.779
 2778W        W 3775   1.432   6.112   2.098
 2779W        W 3776   4.557   6.856   5.957
 2780W        W 3777   7.828   4.101   1.053
 2781W        W 3778   5.467   4.236   1.979
 2782W        W 3779   2.349   3.674   6.796
 2783W        W 3780   1.563   2.120   1.699
 2784W        W 3781   1.312   3.725   6.570
 2785W        W 3782   3.829   3.872   5.880
 2786W        W 3783   0.733   4.972   4.744
 2787W        W 3784   6.109   1.360   2.777
 2788W        W 3785   5.725   5.373   5.069
 2789W        W 3786   4.388   3.358   3.107
 2790W        W 3787   1.171   3.364   5.533
 2791W        W 3788   7.431   1.347   7.389
 2792W        W 3789   2.386   1.780   2.018
 2793W        W 3790   3.438   0.478   6.425
 2794W        W 3791   2.782   3.308   4.014
 2795W        W 3792   5.130   1.191   1.112
 2796W        W 3793   6.228   2.505   5.386
 2797W        W 3794   3.890   6.814   6.146
 2798W        W 3795   5.211   7.900   6.282
 2799W        W 3796   2.451   1.045   0.253
 2800W        W 3797   5.116   0.269   2.912
 2801W        W 3798   4.037   6.694   4.344
 2802W        W 3799   3.452   6.677   6.000
 2803W        W 3800   5.389   0.482   1.891
 2804W        W 3801   5.394   3.290   6.177
 2805W        W 3802   7.941   6.055   5.316
 2806W        W 3803   2.878   4.314   0.739
 2807W        W 3804   6.525   1.137   3.432
 2808W        W 3805   1.075   6.621   1.856
 2809W        W 3806   0.939   4.389   0.443
 2810W        W 3807   4.791   4.159   7.194
 2811W        W 3808   5.113   3.858   7.496
 2812W        W 3809   3.123   7.930   0.926
 2813W        W 3810   5.332   0.055   0.376
 2814W        W 3811   6.705   0.463   6.850
 2815W        W 3812   0.723   0.353   7.704
 2816W        W 3813   6.503   0.341   6.225
 2817W        W 3814   3.811   7.291   6.022
 2818W        W 3815   6.703   6.035   2.894
 2819W        W 3816   5.022   0.460   7.970
 2820W        W 3817   3.435   4.136   1.398
 2821W        W 3818   3.846   3.499   2.137
 2822W        W 3819   3.785   3.769   4.648
 2823W        W 3820   5.675   0.338   0.975
 2824W        W 3821   5.453   2.644   4.223
 2825W        W 3822   3.707   1.731   7.446
 2826W        W 3823   4.641   0.832   4.653
 2827W        W 3824   5.799   1.516   6.729
 2828W        W 3825   2.385   2.815   7.083
 2829W        W 3826   1.796   7.496   0.951
 2830W        W 3827   7.297   4.839   4.492
 2831W        W 3828   5.885   2.144   1.156
 2832W        W 3829   7.584   6.276   1.574
 2833W        W 3830   2.254   3.860   6.311
 2834W        W 3831   1.839   6.214   2.803
 2835W        W 3832   5.687   3.382   2.159
 2836W        W 3833   5.477   1.529   4.653
 2837W        W 3834   4.801   5.121   1.656
 2838W        W 3835   4.336   7.618   4.809
 2839W        W 3836   3.910   0.086   4.446
 2840W        W 3837   6.373   4.905   7.174
 2841W        W 3838   1.493   0.848   2.986
 2842W        W 3839   2.774   5.314   6.002
 2843W        W 3840   0.761   0.940   5.366
 2844W        W 3841   0.982   3.436   3.674
 2845W        W 3842   7.473   1.552   3.920
 2846W        W 3843   0.220   1.001   5.359
 2847W        W 3844   0.941   3.356   0.176
 2848W        W 3845   2.667   6.644   2.569
 2849W        W 3846   4.850   1.182   3.539
 2850W        W 3847   3.463   1.956   2.433
 2851W        W 3848   1.844   4.701   2.684
 2852W        W 3849   4.635   5.937   0.069
 2853W        W 3850   4.637   7.129   1.814
 2854W        W 3851   4.674   3.536   2.702
 2855W        W 3852   0.630   6.261   1.041
 2856W        W 3853   5.158   3.024   3.637
 2857W        W 3854   7.152   6.783   3.943
 2858W        W 3855   3.817   5.864   3.572
 2859W        W 3856   2.049   2.758   4.720
 2860W        W 3857   0.722   6.187   4.321
 2861W        W 3858   2.121   2.068   2.654
 2862W        W 3859   2.067   6.578   5.473
 2863W        W 3860   7.135   2.193   3.270
 2864W        W 3861   2.512   7.486   5.134
 2865W        W 3862   0.387   2.810   1.919
 2866W        W 3863   7.310   4.114   7.364
 2867W        W 3864   6.324   0.187   4.276
 2868W        W 3865   1.866   7.262   3.833
 2869W        W 3866   4.173   2.329   6.114
 2870W        W 3867   6.491   6.887   2.316
 2871W        W 3868   7.849   5.118   0.833
 2872W        W 3869   4.318   3.264   4.015
 2873W        W 3870   6.852   3.196   4.480
 2874W        W 3871   6.516   0.948   7.197
 2875W        W 3872   2.589   0.126   4.024
 2876W        W 3873   3.821   6.636   1.848
 2877W        W 3874   7.194   2.185   2.763
 2878W        W 3875   2.995   7.608   3.578
 2879W        W 3876   0.609   2.654   3.781
 2880W        W 3877   5.449   3.143   4.019
 2881W        W 3878   3.265   4.502   4.341
 2882W        W 3879   5.207   5.080   7.280
 2883W        W 3880   3.690   2.010   3.009
 2884W        W 3881   7.176   4.189   5.776
 2885W        W 3882   3.824   4.257   4.527
 2886W        W 3883   4.083   6.909   0.739
 2887W        W 3884   6.551   6.337   3.385
 2888W        W 3885   2.389   6.198   5.755
 2889W        W 3886   7.035   2.623   3.040
 2890W        W 3887   7.060   0.992   6.108
 2891W        W 3888   2.876   2.267   4.482
 2892W        W 3889   7.997   7.211   6.058
 2893W        W 3890   4.297   1.238   7.592
 2894W        W 3891   5.536   1.543   0.854
 2895W        W 3892   7.716   4.618   6.419
 2896W        W 3893   1.534   6.012   6.275
 2897W        W 3894   0.617   3.578   1.046
 2898W        W 3895   7.672   3.288   5.198
 2899W        W 3896   3.922   3.847   5.160
 2900W        W 3897   6.164   0.806   7.529
 2901W        W 3898   6.859   6.702   3.503
 2902W        W 3899   3.814   1.110   4.758
 2903W        W 3900   7.371   1.735   2.626
 2904W        W 3901   7.463   6.667   4.408
 2905W        W 3902   2.099   4.948   1.359
 2906W        W 3903   1.979   2.925   5.196
 2907W        W 3904   5.512   3.226   5.652
 2908W        W 3905   3.567   2.859   4.372
 2909W        W 3906   0.837   1.481   6.899
 2910W        W 3907   3.885   4.587   3.527
 2911W        W 3908   1.239   6.828   0.948
 2912W        W 3909   5.523   0.151   3.237
 2913W        W 3910   3.007   3.151   4.463
 2914W        W 3911   2.301   0.606   3.159
 2915W        W 3912   6.560   1.717   6.454
 2916W        W 3913   0.113   2.912   1.570
 2917W        W 3914   6.683   3.322   2.064
 2918W        W 3915   4.895   6.566   0.445
 2919W        W 3916   0.468   0.338   3.131
 2920W        W 3917   1.134   0.975   3.303
 2921W        W 3918   2.335   1.946   4.406
 2922W        W 3919   3.106   0.945   3.996
 2923W        W 3920   6.253   7.750   4.413
 2924W        W 3921   6.458   6.458   7.333
 2925W        W 3922   4.661   3.696   6.931
 2926W        W 3923   4.648   5.509   2.021
 2927W        W 3924   3.393   6.711   5.111
 2928W        W 3925   1.514   2.009   6.748
 2929W        W 3926   5.649   6.180   1.642
 2930W        W 3927   0.477   4.680   7.818
 2931W        W 3928   0.556   5.789   2.392
 2932W        W 3929   4.463   2.393   4.383
 2933W        W 3930   2.908   0.750   2.849
 2934W        W 3931   6.941   1.260   5.189
 2935W        W 3932   0.193   4.663   2.090
 2936W        W 3933   6.306   3.879   4.150
 2937W        W 3934   4.621   4.786   3.974
 2938W        W 3935   7.592   0.064   3.783
 2939W        W 3936   5.298   5.955   6.066
 2940W        W 3937   1.740   0.626   7.870
 2941W        W 3938   6.875   7.217   4.084
 2942W        W 3939   2.720   4.298   5.305
 2943W        W 3940   3.233   1.042   4.825
 2944W        W 3941   0.961   5.005   7.124
 2945W        W 3942   7.381   6.703   1.307
 2946W        W 3943   6.790   0.918   3.051
 2947W        W 3944   7.971   4.394   3.352
 2948W        W 3945   7.875   5.553   3.502
 2949W        W 3946   7.847   5.814   1.770
 2950W        W 3947   4.836   0.853   6.407
 2951W        W 3948   1.339   0.179   6.485
 2952W        W 3949   7.211   5.433   1.623
 2953W        W 3950   3.147   5.745   5.887
 2954W        W 3951   1.844   2.214   4.828
 2955W        W 3952   3.966   4.713   7.561
 2956W        W 3953   3.231   0.502   3.725
 2957W        W 3954   5.974   6.562   0.828
 2958W        W 3955   1.681   2.878   2.678
 2959W        W 3956   3.629   0.469   7.455
 2960W        W 3957   1.492   4.113   0.441
 2961W        W 3958   4.536   6.672   1.547
 2962W        W 3959   5.346   3.719   1.866
 2963W        W 3960   6.950   4.984   4.108
 2964W        W 3961   7.187   1.433   0.056
 2965W        W 3962   2.957   1.383   7.034
 2966W        W 3963   7.131   6.392   4.615
 2967W        W 3964   6.548   6.166   1.709
 2968W        W 3965   0.735   3.389   2.605
 2969W        W 3966   7.471   6.588   2.948
 2970W        W 3967   6.740   5.774   6.680
 2971W        W 3968   1.848   4.244   7.305
 2972W        W 3969   0.741   7.139   2.825
 2973W        W 3970   7.347   5.199   5.365
 2974W        W 3971   6.027   5.222   5.402
 2975W        W 3972   0.199   4.902   2.766
 2976W        W 3973   0.103   1.926   5.540
 2977W        W 3974   3.458   1.292   6.421
 2978W        W 3975   4.924   7.144   5.798
 2979W        W 3976   5.957   1.783   5.860
 2980W        W 3977   4.403   5.594   6.848
 2981W        W 3978   0.038   1.318   7.673
 2982W        W 3979   1.552   3.619   4.057
 2983W        W 3980   3.051   6.778   6.892
 2984W        W 3981   1.999   6.453   4.619
 2985W        W 3982   5.342   1.582   2.248
 2986W        W 3983   2.213   7.194   0.983
 2987W        W 3984   6.255   0.468   0.821
 2988W        W 3985   6.146   2.516   3.667
 2989W        W 3986   5.005   1.973   5.732
 2990W        W 3987   3.708   5.585   0.030
 2991W        W 3988   5.793   5.722   6.116
 2992W        W 3989   7.382   5.652   7.936
 2993W        W 3990   4.357   3.115   6.390
 2994W        W 3991   1.294   7.133   2.618
 2995W        W 3992   7.555   5.064   6.251
 2996W        W 3993   5.725   3.392   1.641
 2997W        W 3994   5.662   0.735   5.122
 2998W        W 3995   3.298   2.570   5.788
 2999W        W 3996   4.943   2.315   2.041
 3000W        W 3997   7.351   1.161   3.073
 3001W        W 3998   4.334   2.648   4.820
 3002W        W 3999   3.062   3.244   3.540
 3003W        W 4000   0.854   0.066   3.326
 3004W        W 4001   0.322   1.238   0.690
 3005W        W 4002   7.196   4.701   4.959
 3006W        W 4003   4.532   1.628   5.858
 3007W        W 4004   7.395   1.030   4.715
 3008W        W 4005   7.669   7.724   6.275
 3009W        W 4006   0.802   6.497   3.760
 3010W        W 4007   6.560   6.379   6.363
 3011W        W 4008   6.368   0.883   3.857
 3012W        W 4009   3.737   2.173   6.263
 3013W        W 4010   0.586   1.288   5.096
 3014W        W 4011   7.395   2.613   2.506
 3015W        W 4012   3.339   1.113   0.121
 3016W        W 4013   3.579   7.078   5.626
 3017W        W 4014   1.069   6.801   5.081
 3018W        W 4015   3.610   6.196   1.519
 3019W        W 4016   1.576   7.372   4.357
 3020W        W 4017   0.269   3.535   4.534
 3021W        W 4018   4.395   6.037   6.675
 3022W        W 4019   7.734   4.078   4.226
 3023W        W 4020   2.917   0.717   1.827
 3024W        W 4021   7.936   0.045   3.374
 3025W        W 4022   6.117   7.001   4.924
 3026W        W 4023   4.820   1.380   1.488
 3027W        W 4024   5.061   1.881   6.200
 3028W        W 4025   6.287   3.901   7.209
 3029W        W 4026   5.218   7.600   6.861
 3030W        W 4027   6.414   6.968   6.282
 3031W        W 4028   6.056   3.713   0.443
 3032W        W 4029   2.456   2.126   3.058
 3033W        W 4030   4.535   3.129   1.100
 3034W        W 4031   6.696   7.099   4.926
 3035W        W 4032   4.431   3.785   3.552
 3036W        W 4033   5.945   4.666   5.380
 3037W        W 4034   3.115   7.387   7.729
 3038W        W 4035   1.918   2.978   6.992
 3039W        W 4036   6.150   2.592   5.916
 3040W        W 4037   5.071   7.037   0.369
 3041W        W 4038   1.485   7.108   5.036
 3042W        W 4039   7.614   2.536   4.288
 3043W        W 4040   2.879   2.641   1.273
 3044W        W 4041   5.584   6.238   2.162
 3045W        W 4042   3.604   3.791   1.787
 3046W        W 4043   5.474   0.937   0.396
 3047W        W 4044   4.891   3.539   4.947
 3048W        W 4045   4.135   7.007   5.707
 3049W        W 4046   2.626   5.089   2.396
 3050W        W 4047   4.911   2.512   5.450
 3051W        W 4048   5.991   7.197   0.743
 3052W        W 4049   2.566   3.027   0.228
 3053W        W 4050   1.639   2.667   7.350
 3054W        W 4051   1.709   2.541   5.395
 3055W        W 4052   6.757   7.780   4.432
 3056W        W 4053   1.482   4.089   7.696
 3057W        W 4054   7.366   2.889   4.010
 3058W        W 4055   0.833   4.579   5.175
 3059W        W 4056   0.620   4.815   3.816
 3060W        W 4057   7.425   1.828   6.828
 3061W        W 4058   5.314   5.322   3.530
 3062W        W 4059   3.620   1.601   1.189
 3063W        W 4060   3.005   1.747   0.189
 3064W        W 4061   6.544   4.202   4.525
 3065W        W 4062   4.818   4.703   6.672
 3066W        W 4063   6.049   3.731   6.692
 3067W        W 4064   7.040   2.248   7.471
 3068W        W 4065   6.252   2.164   6.140
 3069W        W 4066   5.157   2.816   2.233
 3070W        W 4067   2.291   0.105   0.592
 3071W        W 4068   5.155   7.009   2.498
 3072W        W 4069   5.591   5.385   7.412
 3073W        W 4070   0.816   2.248   7.328
 3074W        W 4071   5.689   2.749   3.395
 3075W        W 4072   6.030   7.377   6.199
 3076W        W 4073   4.826   7.426   5.397
 3077W        W 4074   3.940   7.340   2.486
 3078W        W 4075   1.952   6.073   6.014
 3079W        W 4076   3.271   4.436   5.319
 3080W        W 4077   5.992   7.705   1.618
 3081W        W 4078   4.662   3.089   7.772
 3082W        W 4079   6.305   3.372   2.875
 3083W        W 4080   4.055   2.844   4.184
 3084W        W 4081   3.107   4.155   6.390
 3085W        W 4082   7.077   2.092   3.833
 3086W        W 4083   7.484   5.038   0.358
 3087W        W 4084   6.581   4.574   5.619
 3088W        W 4085   0.141   1.204   3.687
 3089W        W 4086   2.468   4.585   7.133
 3090W        W 4087   5.195   6.807   6.129
 3091W        W 4088   1.967   3.374   7.300
 3092W        W 4089   2.384   6.654   7.205
 3093W        W 4090   3.565   6.423   2.238
 3094W        W 4091   4.917   6.443   7.328
 3095W        W 4092   0.673   7.302   0.692
 3096W        W 4093   7.359   0.249   4.208
 3097W        W 4094   6.546   1.892   0.675
 3098W        W 4095   1.656   6.815   3.614
 3099W        W 4096   2.814   5.380   0.765
 3100W        W 4097   1.911   3.441   6.744
 3101W        W 4098   3.941   3.366   5.051
 3102W        W 4099   7.356   0.399   6.885
 3103W        W 4100   3.847   1.849   3.887
 3104W        W 4101   4.835   6.747   6.495
 3105W        W 4102   1.709   4.198   2.667
 3106W        W 4103   2.627   0.199   2.204
 3107W        W 4104   7.965   4.383   6.936
 3108W        W 4105   4.598   7.895   6.204
 3109W        W 4106   5.238   3.845   6.036
 3110W        W 4107   6.464   1.507   1.426
 3111W        W 4108   0.529   2.351   0.221
 3112W        W 4109   3.222   3.049   1.437
 3113W        W 4110   1.870   4.466   4.112
 3114W        W 4111   2.052   2.898   0.179
 3115W        W 4112   0.538   6.621   2.092
 3116W        W 4113   2.206   2.504   5.098
 3117W        W 4114   0.199   2.664   2.385
 3118W        W 4115   2.388   2.894   3.322
 3119W        W 4116   4.762   3.283   6.702
 3120W        W 4117   0.011   6.640   2.133
 3121W        W 4118   0.424   4.086   2.870
 3122W        W 4119   4.348   6.071   2.605
 3123W        W 4120   7.746   4.835   3.349
 3124W        W 4121   2.374   0.800   3.608
 3125W        W 4122   0.866   5.105   7.626
 3126W        W 4123   4.329   6.924   2.543
 3127W        W 4124   6.581   2.494   1.553
 3128W        W 4125   0.096   2.253   4.014
 3129W        W 4126   4.731   5.343   5.846
 3130W        W 4127   7.823   6.377   6.175
 3131W        W 4128   7.460   3.734   4.470
 3132W        W 4129   1.655   6.398   5.748
 3133W        W 4130   7.342   1.875   1.439
 3134W        W 4131   6.106   5.019   0.801
 3135W        W 4132   5.124   1.674   4.270
 3136W        W 4133   2.340   2.748   1.443
 3137W        W 4134   4.225   0.833   5.986
 3138W        W 4135   7.116   3.414   2.333
 3139W        W 4136   1.705   6.551   6.245
 3140W        W 4137   3.506   3.556   3.897
 3141W        W 4138   3.798   1.987   2.012
 3142W        W 4139   2.484   0.855   1.479
 3143W        W 4140   2.493   0.891   5.441
 3144W        W 4141   1.903   4.814   6.494
 3145W        W 4142   1.995   1.598   5.111
 3146W        W 4143   5.116   1.352   2.599
 3147W        W 4144   5.457   1.338   7.069
 3148W        W 4145   6.236   3.846   4.679
 3149W        W 4146   0.298   7.556   0.935
 3150W        W 4147   4.997   7.370   2.187
 3151W        W 4148   3.320   5.956   4.833
 3152W        W 4149   6.219   6.928   7.135
 3153W        W 4150   6.839   7.016   2.689
 3154W        W 4151   7.820   0.238   1.153
 3155W        W 4152   0.391   1.970   7.560
 3156W        W 4153   0.704   3.334   5.832
 3157W        W 4154   0.265   3.825   1.387
 3158W        W 4155   7.118   1.325   4.286
 3159W        W 4156   3.482   7.576   5.630
 3160W        W 4157   4.550   0.363   7.039
 3161W        W 4158   0.932   1.406   5.423
 3162W        W 4159   6.257   4.506   7.463
 3163W        W 4160   6.836   0.740   3.996
 3164W        W 4161   3.410   7.503   3.382
 3165W        W 4162   1.736   3.761   4.586
 3166W        W 4163   7.561   1.375   5.985
 3167W        W 4164   5.838   1.012   6.843
 3168W        W 4165   4.542   6.351   3.727
 3169W        W 4166   0.253   3.344   5.539
 3170W        W 4167   5.395   5.350   4.708
 3171W        W 4168   1.146   1.681   6.469
 3172W        W 4169   1.109   6.546   2.791
 3173W        W 4170   2.838   6.456   7.571
 3174W        W 4171   7.641   0.391   2.676
 3175W        W 4172   2.032   4.469   1.172
 3176W        W 4173   0.823   2.017   2.145
 3177W        W 4174   2.240   0.195   2.898
 3178W        W 4175   6.921   1.503   6.044
 3179W        W 4176   0.868   6.791   2.487
 3180W        W 4177   5.119   0.728   4.881
 3181W        W 4178   3.309   3.119   2.635
 3182W        W 4179   2.782   0.521   3.309
 3183W        W 4180   7.962   3.768   6.359
 3184W        W 4181   0.510   7.646   1.389
 3185W        W 4182   5.491   2.630   6.781
 3186W        W 4183   1.843   4.437   7.851
 3187W        W 4184   0.082   3.144   2.636
 3188W        W 4185   6.795   1.871   3.414
 3189W        W 4186   5.071   3.741   6.542
 3190W        W 4187   2.142   2.488   6.770
 3191W        W 4188   7.326   6.667   3.432
 3192W        W 4189   4.433   2.152   2.679
 3193W        W 4190   7.477   0.812   1.332
 3194W        W 4191   3.612   2.999   2.269
 3195W        W 4192   6.862   1.258   6.570
 3196W        W 4193   1.807   0.803   4.299
 3197W        W 4194   5.569   3.620   3.944
 3198W        W 4195   7.057   2.002   0.095
 3199W        W 4196   4.712   3.321   3.477
 3200W        W 4197   3.079   5.876   1.077
 3201W        W 4198   6.481   4.268   0.208
 3202W        W 4199   3.480   3.995   5.478
 3203W        W 4200   0.999   3.896   0.369
 3204W        W 4201   1.253   6.368   6.075
 3205W        W 4202   4.509   2.980   2.716
 3206W        W 4203   7.290   4.529   1.008
 3207W        W 4204   0.824   3.061   4.860
 3208W        W 4205   4.312   5.065   4.226
 3209W        W 4206   2.838   2.910   7.734
 3210W        W 4207   4.730   5.030   2.123
 3211W        W 4208   5.302   4.533   3.096
 3212W        W 4209   5.460   7.517   2.475
 3213W        W 4210   4.717   5.174   3.466
 3214W        W 4211   3.270   3.087   4.014
 3215W        W 4212   5.425   1.206   4.254
 3216W        W 4213   1.015   7.828   1.460
 3217W        W 4214   5.179   2.493   0.708
 3218W        W 4215   4.732   0.192   6.578
 3219W        W 4216   6.118   1.947   1.675
 3220W        W 4217   5.865   0.965   1.984
   8.00000   8.00000   8.00000
