; MARTINI (martini22) Coarse Grained topology file for "TYR-TRP-TYR"
; Created by py version 2.4 
; Using the following options:  -f ../2_Creating_coordinates/TYR-TRP-TYR_aa.pdb -name TYR-TRP-TYR -o TYR-TRP-TYR.top -x TYR-TRP-TYR.pdb -ff martini22 -ss EEE -nt
; Sequence:
; YWY
; Secondary Structure:
; EEE

[ moleculetype ]
; Name         Exclusions
TYR-TRP-TYR       1

[ atoms ]
    1   Nda     1   TYR    BB     1  0.0000 ; E
    2   SC4     1   TYR   SC1     2  0.0000 ; E
    3   SC4     1   TYR   SC2     3  0.0000 ; E
    4   SP1     1   TYR   SC3     4  0.0000 ; E
    5   Nda     2   TRP    BB     5  0.0000 ; E
    6   SC4     2   TRP   SC1     6  0.0000 ; E
    7   SNd     2   TRP   SC2     7  0.0000 ; E
    8   SC5     2   TRP   SC3     8  0.0000 ; E
    9   SC5     2   TRP   SC4     9  0.0000 ; E
   10   Nda     3   TYR    BB    10  0.0000 ; E
   11   SC4     3   TYR   SC1    11  0.0000 ; E
   12   SC4     3   TYR   SC2    12  0.0000 ; E
   13   SP1     3   TYR   SC3    13  0.0000 ; E

[ bonds ]
; Backbone bonds
    1     5      1   0.35000  1250 ; TYR(E)-TRP(E)
    5    10      1   0.35000  1250 ; TRP(E)-TYR(E)
; Sidechain bonds
    1     2      1   0.32000  5000 ; TYR
    5     6      1   0.30000  5000 ; TRP
   10    11      1   0.32000  5000 ; TYR

[ constraints ]
    2     3      1   0.27000 ; TYR
    2     4      1   0.27000 ; TYR
    3     4      1   0.27000 ; TYR
    6     7      1   0.27000 ; TRP
    6     8      1   0.27000 ; TRP
    7     8      1   0.27000 ; TRP
    7     9      1   0.27000 ; TRP
    8     9      1   0.27000 ; TRP
   11    12      1   0.27000 ; TYR
   11    13      1   0.27000 ; TYR
   12    13      1   0.27000 ; TYR

[ angles ]
; Backbone angles
    1     5    10      2    134    25 ; TYR(E)-TRP(E)-TYR(E)
; Backbone-sidechain angles
    2     1     5      2    100    25 ; TYR(E)-TRP(E) SBB
    1     5     6      2    100    25 ; TYR(E)-TRP(E) SBB
    5    10    11      2    100    25 ; TRP(E)-TYR(E) SBB
; Sidechain angles
    1     2     3      2    150    50 ; TYR
    1     2     4      2    150    50 ; TYR
    5     6     7      2    210    50 ; TRP
    5     6     8      2     90    50 ; TRP
   10    11    12      2    150    50 ; TYR
   10    11    13      2    150    50 ; TYR

[ dihedrals ]
; Backbone dihedrals
; Sidechain improper dihedrals
    1     3     4     2      2      0    50 ; TYR
    5     7     8     6      2      0    50 ; TRP
    6     7     9     8      2      0   200 ; TRP
   10    12    13    11      2      0    50 ; TYR