Martini system from ../2_Creating_coordinates/TYR-ILE-TYR_aa.pdb
 4203
    1TYR     BB    1   0.291   5.731   7.225
    1TYR    SC1    2   0.391   5.638   6.946
    1TYR    SC2    3   0.187   5.683   6.826
    1TYR    SC3    4   0.313   5.761   6.634
    2ILE     BB    5   0.145   6.021   7.035
    2ILE    SC1    6   0.071   6.157   7.293
    3TYR     BB    7  -0.129   6.084   6.876
    3TYR    SC1    8  -0.039   6.067   6.600
    3TYR    SC2    9  -0.230   6.111   6.459
    3TYR    SC3   10  -0.092   6.241   6.308
    1TYR     BB   11   0.028   2.569   4.335
    1TYR    SC1   12   0.060   2.687   4.621
    1TYR    SC2   13   0.025   2.481   4.741
    1TYR    SC3   14   0.195   2.543   4.904
    2ILE     BB   15   0.244   2.289   4.467
    2ILE    SC1   16   0.266   2.172   4.191
    3TYR     BB   17   0.199   2.012   4.625
    3TYR    SC1   18   0.290   2.084   4.893
    3TYR    SC2   19   0.265   1.890   5.033
    3TYR    SC3   20   0.476   1.938   5.143
    1TYR     BB   21   6.362   6.541   0.582
    1TYR    SC1   22   6.220   6.279   0.492
    1TYR    SC2   23   6.020   6.309   0.621
    1TYR    SC3   24   5.886   6.218   0.440
    2ILE     BB   25   6.024   6.698   0.529
    2ILE    SC1   26   6.140   6.972   0.572
    3TYR     BB   27   5.755   6.741   0.702
    3TYR    SC1   28   5.579   6.542   0.583
    3TYR    SC2   29   5.367   6.554   0.698
    3TYR    SC3   30   5.248   6.523   0.489
    1TYR     BB   31   4.758   4.432   7.050
    1TYR    SC1   32   4.694   4.690   6.888
    1TYR    SC2   33   4.817   4.630   6.690
    1TYR    SC3   34   4.645   4.729   6.550
    2ILE     BB   35   4.685   4.255   6.726
    2ILE    SC1   36   4.700   3.988   6.864
    3TYR     BB   37   4.849   4.172   6.461
    3TYR    SC1   38   4.749   4.369   6.269
    3TYR    SC2   39   4.860   4.327   6.059
    3TYR    SC3   40   4.653   4.370   5.939
    1TYR     BB   41   0.626   4.909   3.755
    1TYR    SC1   42   0.621   4.630   3.616
    1TYR    SC2   43   0.847   4.566   3.671
    1TYR    SC3   44   0.776   4.337   3.707
    2ILE     BB   45   0.796   4.723   4.035
    2ILE    SC1   46   0.779   4.966   4.211
    3TYR     BB   47   1.098   4.639   4.113
    3TYR    SC1   48   1.095   4.354   4.049
    3TYR    SC2   49   1.314   4.267   4.099
    3TYR    SC3   50   1.216   4.065   4.191
    1TYR     BB   51   0.932   2.713   4.548
    1TYR    SC1   52   0.818   2.424   4.521
    1TYR    SC2   53   0.870   2.394   4.288
    1TYR    SC3   54   0.929   2.162   4.328
    2ILE     BB   55   1.221   2.576   4.348
    2ILE    SC1   56   1.375   2.831   4.392
    3TYR     BB   57   1.294   2.538   4.037
    3TYR    SC1   58   1.256   2.250   4.005
    3TYR    SC2   59   1.305   2.196   3.775
    3TYR    SC3   60   1.418   1.993   3.844
    1TYR     BB   61   1.978   4.003   3.065
    1TYR    SC1   62   2.244   4.059   2.913
    1TYR    SC2   63   2.143   4.126   2.704
    1TYR    SC3   64   2.313   4.297   2.674
    2ILE     BB   65   1.863   4.326   2.908
    2ILE    SC1   66   1.613   4.321   3.074
    3TYR     BB   67   1.727   4.416   2.631
    3TYR    SC1   68   1.953   4.537   2.493
    3TYR    SC2   69   1.875   4.614   2.278
    3TYR    SC3   70   2.009   4.815   2.298
    1TYR     BB   71   6.707   1.253   0.158
    1TYR    SC1   72   6.943   1.288  -0.042
    1TYR    SC2   73   7.116   1.317   0.122
    1TYR    SC3   74   7.271   1.188  -0.014
    2ILE     BB   75   6.947   1.030   0.344
    2ILE    SC1   76   6.728   0.945   0.531
    3TYR     BB   77   7.178   1.067   0.566
    3TYR    SC1   78   7.419   1.036   0.404
    3TYR    SC2   79   7.608   1.060   0.550
    3TYR    SC3   80   7.724   0.880   0.436
    1TYR     BB   81   1.663   5.009   0.811
    1TYR    SC1   82   1.668   4.725   0.683
    1TYR    SC2   83   1.446   4.660   0.749
    1TYR    SC3   84   1.414   4.545   0.537
    2ILE     BB   85   1.317   5.028   0.662
    2ILE    SC1   86   1.297   5.318   0.737
    3TYR     BB   87   1.019   4.943   0.750
    3TYR    SC1   88   0.976   4.706   0.586
    3TYR    SC2   89   0.756   4.622   0.634
    3TYR    SC3   90   0.719   4.572   0.400
    1TYR     BB   91   4.870   2.978   8.482
    1TYR    SC1   92   4.971   2.743   8.304
    1TYR    SC2   93   4.811   2.771   8.126
    1TYR    SC3   94   4.980   2.716   7.961
    2ILE     BB   95   4.853   3.167   8.156
    2ILE    SC1   96   4.793   3.422   8.304
    3TYR     BB   97   4.638   3.207   7.919
    3TYR    SC1   98   4.753   3.040   7.709
    3TYR    SC2   99   4.608   3.054   7.518
    3TYR    SC3  100   4.800   3.062   7.369
    1TYR     BB  101   3.044   3.619   5.792
    1TYR    SC1  102   3.327   3.494   5.761
    1TYR    SC2  103   3.385   3.494   5.995
    1TYR    SC3  104   3.496   3.280   5.970
    2ILE     BB  105   3.012   3.380   6.082
    2ILE    SC1  106   2.721   3.450   6.112
    3TYR     BB  107   3.086   3.379   6.395
    3TYR    SC1  108   3.320   3.206   6.398
    3TYR    SC2  109   3.396   3.190   6.626
    3TYR    SC3  110   3.444   2.954   6.597
    1TYR     BB  111   2.574   5.850   7.715
    1TYR    SC1  112   2.351   5.657   7.616
    1TYR    SC2  113   2.198   5.694   7.799
    1TYR    SC3  114   2.009   5.684   7.648
    2ILE     BB  115   2.288   6.083   7.789
    2ILE    SC1  116   2.481   6.305   7.852
    3TYR     BB  117   2.085   6.136   8.034
    3TYR    SC1  118   1.840   6.016   7.932
    3TYR    SC2  119   1.670   6.043   8.100
    3TYR    SC3  120   1.505   6.094   7.930
    1TYR     BB  121   0.506   1.006   7.613
    1TYR    SC1  122   0.343   0.889   7.850
    1TYR    SC2  123   0.334   0.662   7.770
    1TYR    SC3  124   0.361   0.578   7.996
    2ILE     BB  125   0.715   0.695   7.652
    2ILE    SC1  126   0.915   0.800   7.454
    3TYR     BB  127   0.706   0.391   7.543
    3TYR    SC1  128   0.615   0.249   7.780
    3TYR    SC2  129   0.600   0.015   7.723
    3TYR    SC3  130   0.690  -0.047   7.940
    1TYR     BB  131   1.735   6.947   6.791
    1TYR    SC1  132   1.616   6.714   6.622
    1TYR    SC2  133   1.501   6.851   6.461
    1TYR    SC3  134   1.558   6.696   6.283
    2ILE     BB  135   1.815   7.099   6.455
    2ILE    SC1  136   1.974   7.317   6.587
    3TYR     BB  137   1.664   7.284   6.239
    3TYR    SC1  138   1.598   7.090   6.032
    3TYR    SC2  139   1.482   7.206   5.857
    3TYR    SC3  140   1.601   7.078   5.688
    1TYR     BB  141   2.033   3.287   5.867
    1TYR    SC1  142   1.902   3.384   5.602
    1TYR    SC2  143   1.757   3.195   5.570
    1TYR    SC3  144   1.581   3.340   5.487
    2ILE     BB  145   1.681   3.194   5.963
    2ILE    SC1  146   1.770   3.130   6.243
    3TYR     BB  147   1.486   2.940   5.924
    3TYR    SC1  148   1.305   3.038   5.717
    3TYR    SC2  149   1.147   2.863   5.670
    3TYR    SC3  150   0.968   3.025   5.652
    1TYR     BB  151   2.800   5.375   1.472
    1TYR    SC1  152   2.601   5.400   1.234
    1TYR    SC2  153   2.399   5.375   1.363
    1TYR    SC3  154   2.287   5.540   1.225
    2ILE     BB  155   2.558   5.604   1.649
    2ILE    SC1  156   2.750   5.634   1.879
    3TYR     BB  157   2.289   5.572   1.824
    3TYR    SC1  158   2.087   5.657   1.632
    3TYR    SC2  159   1.873   5.641   1.742
    3TYR    SC3  160   1.801   5.849   1.638
    1TYR     BB  161   7.450   1.169   6.396
    1TYR    SC1  162   7.469   1.277   6.105
    1TYR    SC2  163   7.709   1.294   6.096
    1TYR    SC3  164   7.709   1.220   5.865
    2ILE     BB  165   7.736   0.946   6.291
    2ILE    SC1  166   7.715   0.793   6.549
    3TYR     BB  167   8.057   0.965   6.281
    3TYR    SC1  168   8.103   1.002   5.996
    3TYR    SC2  169   8.341   1.020   5.962
    3TYR    SC3  170   8.325   0.886   5.760
    1TYR     BB  171   0.335   7.217   3.570
    1TYR    SC1  172   0.618   7.156   3.684
    1TYR    SC2  173   0.587   6.919   3.714
    1TYR    SC3  174   0.816   6.877   3.644
    2ILE     BB  175   0.393   6.905   3.365
    2ILE    SC1  176   0.142   6.959   3.207
    3TYR     BB  177   0.349   6.588   3.403
    3TYR    SC1  178   0.623   6.498   3.447
    3TYR    SC2  179   0.616   6.260   3.479
    3TYR    SC3  180   0.819   6.233   3.348
    1TYR     BB  181   2.720  -0.084   6.040
    1TYR    SC1  182   2.578   0.024   5.785
    1TYR    SC2  183   2.355   0.030   5.876
    1TYR    SC3  184   2.308   0.236   5.757
    2ILE     BB  185   2.504   0.169   6.220
    2ILE    SC1  186   2.652   0.116   6.477
    3TYR     BB  187   2.207   0.177   6.344
    3TYR    SC1  188   2.066   0.336   6.145
    3TYR    SC2  189   1.838   0.357   6.217
    3TYR    SC3  190   1.832   0.589   6.145
    1TYR     BB  191   0.075   7.498   6.863
    1TYR    SC1  192   0.257   7.668   6.676
    1TYR    SC2  193   0.379   7.484   6.580
    1TYR    SC3  194   0.379   7.594   6.363
    2ILE     BB  195   0.038   7.275   6.561
    2ILE    SC1  196  -0.174   7.115   6.702
    3TYR     BB  197   0.197   7.027   6.432
    3TYR    SC1  198   0.329   7.156   6.206
    3TYR    SC2  199   0.457   6.987   6.091
    3TYR    SC3  200   0.392   7.080   5.876
    1TYR     BB  201   3.981  -0.017   2.269
    1TYR    SC1  202   4.089   0.272   2.312
    1TYR    SC2  203   3.909   0.349   2.452
    1TYR    SC3  204   4.065   0.476   2.588
    2ILE     BB  205   3.907  -0.004   2.639
    2ILE    SC1  206   3.835  -0.296   2.638
    3TYR     BB  207   3.666   0.097   2.827
    3TYR    SC1  208   3.777   0.345   2.934
    3TYR    SC2  209   3.612   0.441   3.080
    3TYR    SC3  210   3.785   0.505   3.238
    1TYR     BB  211   3.353   1.494   5.502
    1TYR    SC1  212   3.571   1.365   5.321
    1TYR    SC2  213   3.426   1.210   5.208
    1TYR    SC3  214   3.546   1.245   5.000
    2ILE     BB  215   3.145   1.493   5.188
    2ILE    SC1  216   2.931   1.654   5.324
    3TYR     BB  217   2.949   1.286   5.037
    3TYR    SC1  218   3.117   1.199   4.815
    3TYR    SC2  219   2.991   1.041   4.685
    3TYR    SC3  220   3.077   1.136   4.479
    1TYR     BB  221   0.901   6.869   2.657
    1TYR    SC1  222   0.898   6.977   2.365
    1TYR    SC2  223   0.900   6.763   2.256
    1TYR    SC3  224   0.748   6.846   2.085
    2ILE     BB  225   0.643   6.626   2.530
    2ILE    SC1  226   0.593   6.527   2.810
    3TYR     BB  227   0.643   6.338   2.385
    3TYR    SC1  228   0.574   6.411   2.112
    3TYR    SC2  229   0.569   6.209   1.982
    3TYR    SC3  230   0.372   6.288   1.862
    1TYR     BB  231   5.136   3.318   5.597
    1TYR    SC1  232   5.223   3.022   5.552
    1TYR    SC2  233   5.002   2.930   5.531
    1TYR    SC3  234   5.078   2.778   5.358
    2ILE     BB  235   4.894   3.249   5.315
    2ILE    SC1  236   4.818   3.539   5.306
    3TYR     BB  237   4.597   3.128   5.285
    3TYR    SC1  238   4.654   2.863   5.178
    3TYR    SC2  239   4.444   2.750   5.146
    3TYR    SC3  240   4.522   2.656   4.937
    1TYR     BB  241   2.086   1.105   5.042
    1TYR    SC1  242   1.847   0.951   4.915
    1TYR    SC2  243   1.842   1.072   4.707
    1TYR    SC3  244   1.789   0.867   4.586
    2ILE     BB  245   2.242   1.067   4.700
    2ILE    SC1  246   2.503   1.175   4.803
    3TYR     BB  247   2.238   1.228   4.421
    3TYR    SC1  248   2.065   1.059   4.260
    3TYR    SC2  249   2.046   1.161   4.042
    3TYR    SC3  250   2.058   0.944   3.935
    1TYR     BB  251   4.593   7.096   4.818
    1TYR    SC1  252   4.370   7.313   4.822
    1TYR    SC2  253   4.200   7.181   4.714
    1TYR    SC3  254   4.030   7.276   4.858
    2ILE     BB  255   4.317   6.864   4.927
    2ILE    SC1  256   4.517   6.644   4.973
    3TYR     BB  257   4.091   6.685   4.784
    3TYR    SC1  258   3.852   6.843   4.835
    3TYR    SC2  259   3.666   6.727   4.736
    3TYR    SC3  260   3.526   6.783   4.926
    1TYR     BB  261   3.766   2.523   1.993
    1TYR    SC1  262   3.879   2.261   2.118
    1TYR    SC2  263   3.932   2.353   2.334
    1TYR    SC3  264   3.861   2.148   2.442
    2ILE     BB  265   3.590   2.561   2.324
    2ILE    SC1  266   3.433   2.794   2.218
    3TYR     BB  267   3.658   2.685   2.613
    3TYR    SC1  268   3.705   2.444   2.770
    3TYR    SC2  269   3.759   2.513   2.994
    3TYR    SC3  270   3.627   2.331   3.085
    1TYR     BB  271   3.093   4.718   0.838
    1TYR    SC1  272   2.815   4.721   0.977
    1TYR    SC2  273   2.719   4.538   0.853
    1TYR    SC3  274   2.605   4.459   1.052
    2ILE     BB  275   3.068   4.345   0.880
    2ILE    SC1  276   3.352   4.312   0.788
    3TYR     BB  277   2.943   4.098   0.715
    3TYR    SC1  278   2.705   4.039   0.872
    3TYR    SC2  279   2.592   3.854   0.766
    3TYR    SC3  280   2.541   3.757   0.982
    1TYR     BB  281   4.714   2.500   2.324
    1TYR    SC1  282   4.526   2.288   2.452
    1TYR    SC2  283   4.645   2.267   2.661
    1TYR    SC3  284   4.435   2.247   2.782
    2ILE     BB  285   4.699   2.663   2.663
    2ILE    SC1  286   4.845   2.904   2.557
    3TYR     BB  287   4.859   2.639   2.942
    3TYR    SC1  288   4.665   2.495   3.106
    3TYR    SC2  289   4.763   2.463   3.324
    3TYR    SC3  290   4.550   2.509   3.430
    1TYR     BB  291   6.664   1.861   1.791
    1TYR    SC1  292   6.723   1.978   2.073
    1TYR    SC2  293   6.494   1.992   2.147
    1TYR    SC3  294   6.559   1.925   2.371
    2ILE     BB  295   6.423   1.638   1.976
    2ILE    SC1  296   6.375   1.477   1.726
    3TYR     BB  297   6.116   1.654   2.073
    3TYR    SC1  298   6.149   1.699   2.359
    3TYR    SC2  299   5.929   1.715   2.456
    3TYR    SC3  300   6.002   1.588   2.650
    1TYR     BB  301   3.098   4.871   2.952
    1TYR    SC1  302   3.036   4.998   3.229
    1TYR    SC2  303   2.838   4.870   3.276
    1TYR    SC3  304   2.898   4.856   3.511
    2ILE     BB  305   3.017   4.546   3.126
    2ILE    SC1  306   3.110   4.391   2.887
    3TYR     BB  307   2.753   4.372   3.188
    3TYR    SC1  308   2.713   4.427   3.471
    3TYR    SC2  309   2.517   4.306   3.541
    3TYR    SC3  310   2.624   4.248   3.751
    1TYR     BB  311   3.236   2.194   3.462
    1TYR    SC1  312   3.016   2.404   3.394
    1TYR    SC2  313   3.044   2.538   3.592
    1TYR    SC3  314   3.007   2.741   3.463
    2ILE     BB  315   3.440   2.495   3.561
    2ILE    SC1  316   3.684   2.322   3.595
    3TYR     BB  317   3.480   2.674   3.825
    3TYR    SC1  318   3.331   2.914   3.754
    3TYR    SC2  319   3.346   3.067   3.940
    3TYR    SC3  320   3.371   3.254   3.788
    1TYR     BB  321   2.226   4.668   7.999
    1TYR    SC1  322   1.997   4.495   7.877
    1TYR    SC2  323   1.966   4.625   7.677
    1TYR    SC3  324   1.929   4.423   7.547
    2ILE     BB  325   2.363   4.666   7.648
    2ILE    SC1  326   2.616   4.797   7.742
    3TYR     BB  327   2.324   4.841   7.380
    3TYR    SC1  328   2.161   4.662   7.218
    3TYR    SC2  329   2.117   4.773   7.008
    3TYR    SC3  330   2.147   4.564   6.888
    1TYR     BB  331   6.465   7.836   2.472
    1TYR    SC1  332   6.530   7.775   2.770
    1TYR    SC2  333   6.648   7.569   2.732
    1TYR    SC3  334   6.807   7.624   2.908
    2ILE     BB  335   6.823   7.733   2.413
    2ILE    SC1  336   6.804   7.822   2.126
    3TYR     BB  337   6.982   7.458   2.359
    3TYR    SC1  338   7.110   7.415   2.618
    3TYR    SC2  339   7.237   7.211   2.602
    3TYR    SC3  340   7.417   7.310   2.731
    1TYR     BB  341   6.957   4.718   1.510
    1TYR    SC1  342   7.101   4.769   1.781
    1TYR    SC2  343   7.206   4.977   1.719
    1TYR    SC3  344   7.167   5.067   1.942
    2ILE     BB  345   6.870   5.084   1.530
    2ILE    SC1  346   6.688   5.057   1.292
    3TYR     BB  347   7.007   5.363   1.446
    3TYR    SC1  348   7.094   5.465   1.705
    3TYR    SC2  349   7.202   5.677   1.667
    3TYR    SC3  350   7.099   5.768   1.867
    1TYR     BB  351   4.710   7.924  -0.365
    1TYR    SC1  352   4.992   8.031  -0.289
    1TYR    SC2  353   4.959   8.031  -0.050
    1TYR    SC3  354   5.188   7.957  -0.016
    2ILE     BB  355   4.767   7.681  -0.082
    2ILE    SC1  356   4.518   7.530  -0.157
    3TYR     BB  357   4.721   7.678   0.237
    3TYR    SC1  358   4.994   7.713   0.334
    3TYR    SC2  359   4.986   7.714   0.575
    3TYR    SC3  360   5.189   7.582   0.586
    1TYR     BB  361   6.120   5.003  -0.172
    1TYR    SC1  362   6.107   5.258  -0.350
    1TYR    SC2  363   6.103   5.418  -0.170
    1TYR    SC3  364   6.245   5.569  -0.297
    2ILE     BB  365   6.375   5.199   0.025
    2ILE    SC1  366   6.440   4.955   0.189
    3TYR     BB  367   6.372   5.411   0.267
    3TYR    SC1  368   6.426   5.660   0.126
    3TYR    SC2  369   6.428   5.837   0.289
    3TYR    SC3  370   6.617   5.941   0.178
    1TYR     BB  371   0.973   5.338   6.777
    1TYR    SC1  372   1.046   5.048   6.694
    1TYR    SC2  373   0.915   5.042   6.492
    1TYR    SC3  374   1.088   4.914   6.379
    2ILE     BB  375   1.029   5.417   6.413
    2ILE    SC1  376   1.004   5.711   6.470
    3TYR     BB  377   0.855   5.413   6.142
    3TYR    SC1  378   0.958   5.174   6.011
    3TYR    SC2  379   0.841   5.149   5.803
    3TYR    SC3  380   1.046   5.081   5.692
    1TYR     BB  381   6.949   5.162   6.570
    1TYR    SC1  382   6.745   5.059   6.781
    1TYR    SC2  383   6.905   5.015   6.956
    1TYR    SC3  384   6.749   5.094   7.124
    2ILE     BB  385   7.096   5.352   6.859
    2ILE    SC1  386   7.280   5.500   6.673
    3TYR     BB  387   7.312   5.296   7.092
    3TYR    SC1  388   7.139   5.261   7.323
    3TYR    SC2  389   7.280   5.216   7.514
    3TYR    SC3  390   7.139   5.356   7.654
    1TYR     BB  391   7.457   6.689   4.717
    1TYR    SC1  392   7.429   6.905   4.495
    1TYR    SC2  393   7.383   6.753   4.314
    1TYR    SC3  394   7.223   6.910   4.219
    2ILE     BB  395   7.150   6.539   4.558
    2ILE    SC1  396   7.126   6.341   4.782
    3TYR     BB  397   7.086   6.335   4.317
    3TYR    SC1  398   6.992   6.518   4.110
    3TYR    SC2  399   6.937   6.386   3.916
    3TYR    SC3  400   6.740   6.523   3.875
    1TYR     BB  401   1.792   0.741   1.883
    1TYR    SC1  402   1.853   0.463   2.010
    1TYR    SC2  403   1.656   0.351   1.929
    1TYR    SC3  404   1.784   0.148   1.891
    2ILE     BB  405   1.699   0.538   1.579
    2ILE    SC1  406   1.671   0.789   1.416
    3TYR     BB  407   1.436   0.389   1.468
    3TYR    SC1  408   1.503   0.110   1.519
    3TYR    SC2  409   1.317  -0.024   1.443
    3TYR    SC3  410   1.470  -0.190   1.354
    1TYR     BB  411   3.744   4.117   2.657
    1TYR    SC1  412   3.671   3.890   2.457
    1TYR    SC2  413   3.595   4.032   2.278
    1TYR    SC3  414   3.695   3.884   2.114
    2ILE     BB  415   3.899   4.281   2.355
    2ILE    SC1  416   4.019   4.495   2.529
    3TYR     BB  417   3.800   4.474   2.116
    3TYR    SC1  418   3.788   4.287   1.893
    3TYR    SC2  419   3.715   4.410   1.699
    3TYR    SC3  420   3.872   4.288   1.560
    1TYR     BB  421   2.803   1.310   7.482
    1TYR    SC1  422   2.619   1.503   7.323
    1TYR    SC2  423   2.549   1.637   7.510
    1TYR    SC3  424   2.556   1.838   7.372
    2ILE     BB  425   2.922   1.625   7.652
    2ILE    SC1  426   3.140   1.472   7.792
    3TYR     BB  427   2.831   1.805   7.904
    3TYR    SC1  428   2.709   2.033   7.770
    3TYR    SC2  429   2.631   2.184   7.940
    3TYR    SC3  430   2.705   2.375   7.810
    1TYR     BB  431   6.253   5.552   3.533
    1TYR    SC1  432   6.243   5.491   3.228
    1TYR    SC2  433   6.479   5.456   3.198
    1TYR    SC3  434   6.435   5.276   3.041
    2ILE     BB  435   6.488   5.258   3.545
    2ILE    SC1  436   6.486   5.264   3.846
    3TYR     BB  437   6.805   5.209   3.508
    3TYR    SC1  438   6.813   5.086   3.243
    3TYR    SC2  439   7.043   5.040   3.192
    3TYR    SC3  440   6.981   4.828   3.091
    1TYR     BB  441   2.950   0.873   0.857
    1TYR    SC1  442   3.250   0.924   0.921
    1TYR    SC2  443   3.328   0.929   0.693
    1TYR    SC3  444   3.484   1.108   0.747
    2ILE     BB  445   3.001   1.137   0.592
    2ILE    SC1  446   2.706   1.141   0.535
    3TYR     BB  447   3.102   1.145   0.287
    3TYR    SC1  448   3.370   1.257   0.318
    3TYR    SC2  449   3.468   1.273   0.099
    3TYR    SC3  450   3.566   1.488   0.155
    1TYR     BB  451   4.777   5.185   5.340
    1TYR    SC1  452   4.997   5.012   5.203
    1TYR    SC2  453   5.100   5.190   5.078
    1TYR    SC3  454   5.320   5.095   5.119
    2ILE     BB  455   5.058   5.430   5.395
    2ILE    SC1  456   4.880   5.600   5.568
    3TYR     BB  457   5.196   5.670   5.230
    3TYR    SC1  458   5.445   5.546   5.145
    3TYR    SC2  459   5.568   5.709   5.017
    3TYR    SC3  460   5.776   5.637   5.120
    1TYR     BB  461   3.426   0.269   7.002
    1TYR    SC1  462   3.174   0.328   7.175
    1TYR    SC2  463   3.185   0.131   7.312
    1TYR    SC3  464   3.113   0.258   7.506
    2ILE     BB  465   3.582   0.174   7.332
    2ILE    SC1  466   3.851   0.148   7.201
    3TYR     BB  467   3.601  -0.090   7.516
    3TYR    SC1  468   3.413  -0.024   7.729
    3TYR    SC2  469   3.409  -0.210   7.882
    3TYR    SC3  470   3.400  -0.058   8.071
    1TYR     BB  471   3.438   5.807   7.508
    1TYR    SC1  472   3.739   5.845   7.579
    1TYR    SC2  473   3.827   5.786   7.363
    1TYR    SC3  474   3.998   5.957   7.382
    2ILE     BB  475   3.528   5.989   7.191
    2ILE    SC1  476   3.238   6.004   7.113
    3TYR     BB  477   3.644   5.911   6.900
    3TYR    SC1  478   3.920   6.003   6.922
    3TYR    SC2  479   4.029   5.954   6.713
    3TYR    SC3  480   4.146   6.167   6.722
    1TYR     BB  481   2.499   7.578   1.619
    1TYR    SC1  482   2.392   7.411   1.379
    1TYR    SC2  483   2.518   7.524   1.208
    1TYR    SC3  484   2.553   7.314   1.091
    2ILE     BB  485   2.834   7.533   1.452
    2ILE    SC1  486   2.973   7.654   1.690
    3TYR     BB  487   3.005   7.685   1.224
    3TYR    SC1  488   2.971   7.504   0.998
    3TYR    SC2  489   3.092   7.598   0.812
    3TYR    SC3  490   3.169   7.377   0.747
    1TYR     BB  491   6.576   3.418   3.069
    1TYR    SC1  492   6.345   3.250   3.193
    1TYR    SC2  493   6.481   3.069   3.275
    1TYR    SC3  494   6.344   3.052   3.475
    2ILE     BB  495   6.756   3.335   3.390
    2ILE    SC1  496   6.979   3.524   3.317
    3TYR     BB  497   6.941   3.096   3.500
    3TYR    SC1  498   6.756   2.958   3.677
    3TYR    SC2  499   6.873   2.771   3.774
    3TYR    SC3  500   6.768   2.811   3.989
    1TYR     BB  501   4.342   6.259   3.631
    1TYR    SC1  502   4.320   6.426   3.893
    1TYR    SC2  503   4.253   6.244   4.036
    1TYR    SC3  504   4.388   6.334   4.217
    2ILE     BB  505   4.515   6.007   3.851
    2ILE    SC1  506   4.588   5.842   3.610
    3TYR     BB  507   4.427   5.762   4.041
    3TYR    SC1  508   4.463   5.880   4.305
    3TYR    SC2  509   4.402   5.713   4.468
    3TYR    SC3  510   4.588   5.779   4.610
    1TYR     BB  511   0.187   4.212   5.544
    1TYR    SC1  512   0.130   4.033   5.792
    1TYR    SC2  513   0.277   4.148   5.945
    1TYR    SC3  514   0.117   4.118   6.126
    2ILE     BB  515   0.157   4.496   5.790
    2ILE    SC1  516   0.168   4.696   5.565
    3TYR     BB  517   0.352   4.653   5.993
    3TYR    SC1  518   0.266   4.544   6.250
    3TYR    SC2  519   0.400   4.648   6.421
    3TYR    SC3  520   0.206   4.665   6.566
    1TYR     BB  521   7.811   2.699   1.498
    1TYR    SC1  522   7.802   2.904   1.733
    1TYR    SC2  523   7.566   2.948   1.723
    1TYR    SC3  524   7.555   2.960   1.965
    2ILE     BB  525   7.500   2.559   1.659
    2ILE    SC1  526   7.505   2.324   1.472
    3TYR     BB  527   7.183   2.615   1.646
    3TYR    SC1  528   7.139   2.755   1.898
    3TYR    SC2  529   6.905   2.809   1.911
    3TYR    SC3  530   6.902   2.753   2.148
    1TYR     BB  531   6.649   1.465   6.172
    1TYR    SC1  532   6.384   1.306   6.209
    1TYR    SC2  533   6.340   1.268   5.976
    1TYR    SC3  534   6.257   1.045   6.024
    2ILE     BB  535   6.730   1.197   5.919
    2ILE    SC1  536   7.010   1.303   5.891
    3TYR     BB  537   6.674   1.145   5.606
    3TYR    SC1  538   6.465   0.943   5.618
    3TYR    SC2  539   6.406   0.887   5.391
    3TYR    SC3  540   6.388   0.652   5.450
    1TYR     BB  541   2.298   0.347   8.141
    1TYR    SC1  542   2.286   0.658   8.139
    1TYR    SC2  543   2.423   0.690   7.943
    1TYR    SC3  544   2.282   0.875   7.872
    2ILE     BB  545   2.239   0.380   7.770
    2ILE    SC1  546   2.204   0.083   7.745
    3TYR     BB  547   2.420   0.421   7.506
    3TYR    SC1  548   2.370   0.702   7.446
    3TYR    SC2  549   2.497   0.757   7.249
    3TYR    SC3  550   2.314   0.892   7.164
    1TYR     BB  551   5.036   6.424   1.780
    1TYR    SC1  552   5.300   6.570   1.855
    1TYR    SC2  553   5.289   6.739   1.684
    1TYR    SC3  554   5.378   6.905   1.838
    2ILE     BB  555   4.896   6.773   1.750
    2ILE    SC1  556   4.618   6.662   1.715
    3TYR     BB  557   4.878   6.999   1.521
    3TYR    SC1  558   5.081   7.188   1.612
    3TYR    SC2  559   5.086   7.369   1.454
    3TYR    SC3  560   5.113   7.530   1.634
    1TYR     BB  561   1.728   7.254   5.092
    1TYR    SC1  562   1.552   7.019   5.198
    1TYR    SC2  563   1.386   7.028   5.024
    1TYR    SC3  564   1.371   6.785   5.022
    2ILE     BB  565   1.675   7.092   4.756
    2ILE    SC1  566   1.874   7.280   4.631
    3TYR     BB  567   1.454   7.104   4.521
    3TYR    SC1  568   1.315   6.851   4.562
    3TYR    SC2  569   1.141   6.837   4.395
    3TYR    SC3  570   1.187   6.601   4.363
    1TYR     BB  571   5.422   3.655   4.612
    1TYR    SC1  572   5.254   3.904   4.531
    1TYR    SC2  573   5.405   3.988   4.364
    1TYR    SC3  574   5.218   4.054   4.224
    2ILE     BB  575   5.469   3.614   4.241
    2ILE    SC1  576   5.601   3.347   4.284
    3TYR     BB  577   5.673   3.723   4.016
    3TYR    SC1  578   5.506   3.920   3.880
    3TYR    SC2  579   5.639   4.018   3.704
    3TYR    SC3  580   5.448   4.016   3.555
    1TYR     BB  581   3.236   6.830   5.491
    1TYR    SC1  582   3.487   6.670   5.402
    1TYR    SC2  583   3.564   6.613   5.623
    1TYR    SC3  584   3.632   6.393   5.546
    2ILE     BB  585   3.186   6.546   5.734
    2ILE    SC1  586   2.917   6.655   5.812
    3TYR     BB  587   3.287   6.470   6.030
    3TYR    SC1  588   3.485   6.264   5.972
    3TYR    SC2  589   3.576   6.190   6.182
    3TYR    SC3  590   3.577   5.960   6.105
    1TYR     BB  591   3.687   7.565   4.186
    1TYR    SC1  592   3.525   7.305   4.135
    1TYR    SC2  593   3.342   7.408   4.017
    1TYR    SC3  594   3.328   7.219   3.866
    2ILE     BB  595   3.603   7.644   3.828
    2ILE    SC1  596   3.786   7.882   3.833
    3TYR     BB  597   3.360   7.784   3.669
    3TYR    SC1  598   3.226   7.552   3.553
    3TYR    SC2  599   3.037   7.633   3.427
    3TYR    SC3  600   3.081   7.471   3.252
    1TYR     BB  601   6.061   2.405   6.002
    1TYR    SC1  602   5.877   2.654   6.026
    1TYR    SC2  603   5.718   2.558   6.178
    1TYR    SC3  604   5.698   2.769   6.296
    2ILE     BB  605   6.019   2.384   6.376
    2ILE    SC1  606   6.226   2.167   6.391
    3TYR     BB  607   5.808   2.254   6.581
    3TYR    SC1  608   5.661   2.489   6.670
    3TYR    SC2  609   5.494   2.416   6.827
    3TYR    SC3  610   5.536   2.610   6.967
    1TYR     BB  611   2.593   5.651   5.640
    1TYR    SC1  612   2.447   5.578   5.374
    1TYR    SC2  613   2.244   5.699   5.418
    1TYR    SC3  614   2.229   5.765   5.185
    2ILE     BB  615   2.462   5.998   5.571
    2ILE    SC1  616   2.625   6.108   5.799
    3TYR     BB  617   2.192   6.163   5.631
    3TYR    SC1  618   2.066   6.164   5.368
    3TYR    SC2  619   1.858   6.284   5.388
    3TYR    SC3  620   1.895   6.389   5.173
    1TYR     BB  621   2.933   6.230   2.775
    1TYR    SC1  622   3.152   6.448   2.739
    1TYR    SC2  623   3.019   6.602   2.610
    1TYR    SC3  624   3.120   6.790   2.724
    2ILE     BB  625   2.707   6.523   2.848
    2ILE    SC1  626   2.486   6.337   2.930
    3TYR     BB  627   2.526   6.728   2.678
    3TYR    SC1  628   2.689   6.970   2.687
    3TYR    SC2  629   2.573   7.141   2.564
    3TYR    SC3  630   2.636   7.307   2.730
    1TYR     BB  631   4.873   1.067   2.904
    1TYR    SC1  632   5.125   0.944   2.769
    1TYR    SC2  633   5.015   0.861   2.572
    1TYR    SC3  634   5.206   0.922   2.435
    2ILE     BB  635   4.797   1.196   2.558
    2ILE    SC1  636   4.569   1.359   2.666
    3TYR     BB  637   4.647   1.086   2.295
    3TYR    SC1  638   4.873   1.025   2.122
    3TYR    SC2  639   4.785   0.940   1.915
    3TYR    SC3  640   4.953   1.063   1.789
    1TYR     BB  641   5.766   0.815   2.391
    1TYR    SC1  642   5.976   0.983   2.234
    1TYR    SC2  643   6.015   0.823   2.058
    1TYR    SC3  644   6.032   1.003   1.895
    2ILE     BB  645   5.623   0.746   2.049
    2ILE    SC1  646   5.383   0.613   2.173
    3TYR     BB  647   5.671   0.532   1.813
    3TYR    SC1  648   5.816   0.693   1.619
    3TYR    SC2  649   5.864   0.552   1.430
    3TYR    SC3  650   5.815   0.734   1.277
    1TYR     BB  651   0.382   1.981   1.439
    1TYR    SC1  652   0.498   2.227   1.289
    1TYR    SC2  653   0.566   2.110   1.090
    1TYR    SC3  654   0.498   2.298   0.952
    2ILE     BB  655   0.228   1.896   1.105
    2ILE    SC1  656   0.069   1.674   1.231
    3TYR     BB  657   0.318   1.737   0.839
    3TYR    SC1  658   0.370   1.958   0.656
    3TYR    SC2  659   0.439   1.862   0.446
    3TYR    SC3  660   0.310   2.028   0.324
    1TYR     BB  661   2.396   7.588   3.881
    1TYR    SC1  662   2.376   7.549   3.573
    1TYR    SC2  663   2.178   7.412   3.575
    1TYR    SC3  664   2.097   7.521   3.373
    2ILE     BB  665   2.024   7.646   3.860
    2ILE    SC1  666   2.017   7.730   4.148
    3TYR     BB  667   1.758   7.465   3.864
    3TYR    SC1  668   1.681   7.469   3.583
    3TYR    SC2  669   1.481   7.338   3.560
    3TYR    SC3  670   1.390   7.498   3.402
    1TYR     BB  671   6.974   2.165   7.055
    1TYR    SC1  672   6.969   1.901   6.890
    1TYR    SC2  673   6.782   1.800   7.004
    1TYR    SC3  674   6.701   1.708   6.795
    2ILE     BB  675   6.600   2.156   7.010
    2ILE    SC1  676   6.575   2.431   7.129
    3TYR     BB  677   6.349   2.024   7.163
    3TYR    SC1  678   6.283   1.803   6.984
    3TYR    SC2  679   6.094   1.687   7.078
    3TYR    SC3  680   5.997   1.659   6.858
    1TYR     BB  681   2.447   5.693   6.431
    1TYR    SC1  682   2.513   5.472   6.641
    1TYR    SC2  683   2.285   5.422   6.702
    1TYR    SC3  684   2.339   5.186   6.720
    2ILE     BB  685   2.180   5.451   6.318
    2ILE    SC1  686   2.121   5.625   6.079
    3TYR     BB  687   1.875   5.385   6.397
    3TYR    SC1  688   1.907   5.136   6.544
    3TYR    SC2  689   1.689   5.065   6.615
    3TYR    SC3  690   1.744   4.833   6.565
    1TYR     BB  691   2.074   3.663   1.250
    1TYR    SC1  692   2.075   3.967   1.184
    1TYR    SC2  693   1.953   4.040   1.378
    1TYR    SC3  694   2.092   4.238   1.396
    2ILE     BB  695   2.159   3.778   1.599
    2ILE    SC1  696   2.206   3.493   1.684
    3TYR     BB  697   1.997   3.872   1.861
    3TYR    SC1  698   2.042   4.160   1.855
    3TYR    SC2  699   1.928   4.255   2.045
    3TYR    SC3  700   2.113   4.407   2.084
    1TYR     BB  701   6.990   2.204   4.619
    1TYR    SC1  702   6.776   2.109   4.415
    1TYR    SC2  703   6.928   2.008   4.258
    1TYR    SC3  704   6.770   1.828   4.217
    2ILE     BB  705   7.138   1.861   4.564
    2ILE    SC1  706   7.335   1.907   4.787
    3TYR     BB  707   7.344   1.725   4.356
    3TYR    SC1  708   7.162   1.572   4.188
    3TYR    SC2  709   7.294   1.459   4.022
    3TYR    SC3  710   7.156   1.260   4.043
    1TYR     BB  711   3.651   7.027   7.575
    1TYR    SC1  712   3.535   7.306   7.503
    1TYR    SC2  713   3.626   7.319   7.281
    1TYR    SC3  714   3.423   7.426   7.201
    2ILE     BB  715   3.538   6.933   7.228
    2ILE    SC1  716   3.603   6.644   7.281
    3TYR     BB  717   3.660   6.947   6.930
    3TYR    SC1  718   3.510   7.171   6.818
    3TYR    SC2  719   3.585   7.202   6.591
    3TYR    SC3  720   3.357   7.246   6.519
    1TYR     BB  721   7.353   3.434   0.163
    1TYR    SC1  722   7.344   3.531   0.458
    1TYR    SC2  723   7.297   3.763   0.411
    1TYR    SC3  724   7.148   3.775   0.603
    2ILE     BB  725   7.045   3.647   0.122
    2ILE    SC1  726   7.003   3.540  -0.155
    3TYR     BB  727   6.980   3.956   0.057
    3TYR    SC1  728   6.901   4.055   0.319
    3TYR    SC2  729   6.847   4.288   0.296
    3TYR    SC3  730   6.659   4.263   0.447
    1TYR     BB  731   7.575   0.326   4.568
    1TYR    SC1  732   7.675   0.361   4.276
    1TYR    SC2  733   7.753   0.587   4.299
    1TYR    SC3  734   7.943   0.539   4.155
    2ILE     BB  735   7.900   0.495   4.659
    2ILE    SC1  736   7.851   0.440   4.950
    3TYR     BB  737   8.005   0.798   4.693
    3TYR    SC1  738   8.163   0.830   4.450
    3TYR    SC2  739   8.254   1.053   4.452
    3TYR    SC3  740   8.465   0.971   4.364
    1TYR     BB  741   2.505   2.734   2.224
    1TYR    SC1  742   2.364   2.709   2.500
    1TYR    SC2  743   2.143   2.667   2.416
    1TYR    SC3  744   2.101   2.508   2.594
    2ILE     BB  745   2.300   2.431   2.134
    2ILE    SC1  746   2.449   2.404   1.874
    3TYR     BB  747   2.005   2.373   2.018
    3TYR    SC1  748   1.867   2.281   2.258
    3TYR    SC2  749   1.640   2.231   2.196
    3TYR    SC3  750   1.641   2.034   2.338
    1TYR     BB  751   0.177   6.277   5.739
    1TYR    SC1  752   0.159   6.232   5.432
    1TYR    SC2  753   0.323   6.397   5.369
    1TYR    SC3  754   0.406   6.253   5.193
    2ILE     BB  755   0.549   6.284   5.679
    2ILE    SC1  756   0.601   6.286   5.975
    3TYR     BB  757   0.770   6.504   5.597
    3TYR    SC1  758   0.819   6.436   5.318
    3TYR    SC2  759   0.983   6.590   5.234
    3TYR    SC3  760   1.092   6.411   5.110
    1TYR     BB  761   4.191   6.591   6.179
    1TYR    SC1  762   4.271   6.312   6.292
    1TYR    SC2  763   4.490   6.303   6.193
    1TYR    SC3  764   4.579   6.197   6.393
    2ILE     BB  765   4.540   6.690   6.281
    2ILE    SC1  766   4.479   6.978   6.220
    3TYR     BB  767   4.834   6.682   6.150
    3TYR    SC1  768   4.954   6.459   6.295
    3TYR    SC2  769   5.179   6.432   6.212
    3TYR    SC3  770   5.260   6.388   6.437
    1TYR     BB  771   7.328   3.486   5.490
    1TYR    SC1  772   7.501   3.615   5.266
    1TYR    SC2  773   7.707   3.502   5.319
    1TYR    SC3  774   7.760   3.480   5.083
    2ILE     BB  775   7.500   3.167   5.386
    2ILE    SC1  776   7.318   3.007   5.564
    3TYR     BB  777   7.773   3.013   5.458
    3TYR    SC1  778   7.934   3.067   5.221
    3TYR    SC2  779   8.147   2.961   5.251
    3TYR    SC3  780   8.151   2.893   5.018
    1TYR     BB  781   5.356   5.090   2.516
    1TYR    SC1  782   5.553   5.162   2.746
    1TYR    SC2  783   5.411   5.322   2.856
    1TYR    SC3  784   5.487   5.244   3.074
    2ILE     BB  785   5.098   5.083   2.791
    2ILE    SC1  786   4.893   4.972   2.600
    3TYR     BB  787   4.906   5.295   2.938
    3TYR    SC1  788   5.042   5.328   3.193
    3TYR    SC2  789   4.915   5.486   3.324
    3TYR    SC3  790   4.952   5.355   3.525
    1TYR     BB  791   0.843   1.269   6.350
    1TYR    SC1  792   0.717   1.283   6.065
    1TYR    SC2  793   0.523   1.412   6.126
    1TYR    SC3  794   0.537   1.536   5.918
    2ILE     BB  795   0.751   1.635   6.367
    2ILE    SC1  796   0.901   1.664   6.626
    3TYR     BB  797   0.493   1.809   6.449
    3TYR    SC1  798   0.393   1.890   6.188
    3TYR    SC2  799   0.196   2.024   6.224
    3TYR    SC3  800   0.263   2.176   6.048
    1TYR     BB  801   4.686   3.652   1.611
    1TYR    SC1  802   4.605   3.496   1.354
    1TYR    SC2  803   4.667   3.667   1.196
    1TYR    SC3  804   4.750   3.499   1.042
    2ILE     BB  805   4.994   3.742   1.413
    2ILE    SC1  806   5.119   3.866   1.657
    3TYR     BB  807   5.080   3.972   1.204
    3TYR    SC1  808   5.075   3.824   0.952
    3TYR    SC2  809   5.136   3.977   0.777
    3TYR    SC3  810   5.268   3.805   0.669
    1TYR     BB  811   4.324   0.667   0.903
    1TYR    SC1  812   4.414   0.696   0.606
    1TYR    SC2  813   4.406   0.936   0.597
    1TYR    SC3  814   4.605   0.941   0.458
    2ILE     BB  815   4.565   0.951   0.964
    2ILE    SC1  816   4.530   0.920   1.261
    3TYR     BB  817   4.555   1.273   0.955
    3TYR    SC1  818   4.698   1.327   0.707
    3TYR    SC2  819   4.704   1.566   0.677
    3TYR    SC3  820   4.933   1.554   0.597
    1TYR     BB  821   7.717   6.275   0.275
    1TYR    SC1  822   7.469   6.166   0.122
    1TYR    SC2  823   7.508   5.933   0.167
    1TYR    SC3  824   7.269   5.895   0.193
    2ILE     BB  825   7.615   6.027   0.540
    2ILE    SC1  826   7.821   6.139   0.729
    3TYR     BB  827   7.668   5.716   0.603
    3TYR    SC1  828   7.413   5.598   0.526
    3TYR    SC2  829   7.428   5.361   0.564
    3TYR    SC3  830   7.200   5.357   0.649
    1TYR     BB  831   5.978  -0.112   3.762
    1TYR    SC1  832   6.283  -0.064   3.723
    1TYR    SC2  833   6.269   0.172   3.678
    1TYR    SC3  834   6.474   0.211   3.803
    2ILE     BB  835   5.993   0.205   3.965
    2ILE    SC1  836   5.709   0.165   4.055
    3TYR     BB  837   5.972   0.522   3.908
    3TYR    SC1  838   6.251   0.603   3.932
    3TYR    SC2  839   6.261   0.840   3.893
    3TYR    SC3  840   6.425   0.865   4.070
    1TYR     BB  841   4.306   1.072   6.311
    1TYR    SC1  842   4.148   0.938   6.079
    1TYR    SC2  843   4.215   1.092   5.906
    1TYR    SC3  844   4.229   0.911   5.746
    2ILE     BB  845   4.585   1.094   6.058
    2ILE    SC1  846   4.775   1.187   6.271
    3TYR     BB  847   4.677   1.301   5.828
    3TYR    SC1  848   4.594   1.159   5.587
    3TYR    SC2  849   4.653   1.296   5.398
    3TYR    SC3  850   4.723   1.099   5.274
    1TYR     BB  851   5.300   0.995   7.166
    1TYR    SC1  852   5.251   1.299   7.119
    1TYR    SC2  853   5.370   1.315   6.910
    1TYR    SC3  854   5.204   1.469   6.823
    2ILE     BB  855   5.216   0.963   6.800
    2ILE    SC1  856   5.216   0.663   6.824
    3TYR     BB  857   5.375   0.981   6.521
    3TYR    SC1  858   5.288   1.242   6.423
    3TYR    SC2  859   5.396   1.279   6.211
    3TYR    SC3  860   5.192   1.377   6.121
    1TYR     BB  861   1.949   5.985   2.906
    1TYR    SC1  862   2.025   5.760   3.108
    1TYR    SC2  863   2.082   5.905   3.291
    1TYR    SC3  864   1.982   5.750   3.449
    2ILE     BB  865   1.769   6.137   3.200
    2ILE    SC1  866   1.646   6.345   3.021
    3TYR     BB  867   1.843   6.332   3.445
    3TYR    SC1  868   1.854   6.144   3.667
    3TYR    SC2  869   1.909   6.269   3.865
    3TYR    SC3  870   1.751   6.138   3.995
    1TYR     BB  871   0.606   3.607   7.337
    1TYR    SC1  872   0.630   3.413   7.095
    1TYR    SC2  873   0.438   3.278   7.147
    1TYR    SC3  874   0.383   3.260   6.911
    2ILE     BB  875   0.239   3.609   7.250
    2ILE    SC1  876   0.190   3.828   7.450
    3TYR     BB  877  -0.020   3.431   7.321
    3TYR    SC1  878  -0.057   3.283   7.072
    3TYR    SC2  879  -0.248   3.140   7.101
    3TYR    SC3  880  -0.321   3.187   6.874
    1TYR     BB  881   1.367   4.579   1.934
    1TYR    SC1  882   1.297   4.678   2.221
    1TYR    SC2  883   1.269   4.910   2.165
    1TYR    SC3  884   1.083   4.928   2.321
    2ILE     BB  885   1.081   4.802   1.829
    2ILE    SC1  886   1.096   4.694   1.549
    3TYR     BB  887   1.041   5.112   1.752
    3TYR    SC1  888   0.912   5.214   1.992
    3TYR    SC2  889   0.871   5.449   1.958
    3TYR    SC3  890   0.654   5.431   2.065
    1TYR     BB  891   4.143   2.278   5.661
    1TYR    SC1  892   4.010   2.553   5.722
    1TYR    SC2  893   4.061   2.656   5.511
    1TYR    SC3  894   3.845   2.768   5.510
    2ILE     BB  895   3.974   2.313   5.326
    2ILE    SC1  896   4.054   2.032   5.253
    3TYR     BB  897   4.042   2.449   5.042
    3TYR    SC1  898   3.870   2.685   5.050
    3TYR    SC2  899   3.904   2.806   4.844
    3TYR    SC3  900   3.666   2.854   4.830
    1TYR     BB  901   6.944   7.611   1.334
    1TYR    SC1  902   6.943   7.337   1.186
    1TYR    SC2  903   6.717   7.350   1.105
    1TYR    SC3  904   6.783   7.247   0.895
    2ILE     BB  905   6.772   7.737   1.024
    2ILE    SC1  906   6.795   8.021   1.122
    3TYR     BB  907   6.470   7.757   0.914
    3TYR    SC1  908   6.466   7.543   0.717
    3TYR    SC2  909   6.246   7.537   0.620
    3TYR    SC3  910   6.341   7.495   0.400
    1TYR     BB  911   3.246   3.967   4.271
    1TYR    SC1  912   2.980   4.005   4.429
    1TYR    SC2  913   3.072   4.136   4.608
    1TYR    SC3  914   2.872   4.274   4.614
    2ILE     BB  915   3.296   4.334   4.342
    2ILE    SC1  916   3.536   4.339   4.161
    3TYR     BB  917   3.421   4.511   4.580
    3TYR    SC1  918   3.180   4.614   4.707
    3TYR    SC2  919   3.248   4.753   4.892
    3TYR    SC3  920   3.074   4.914   4.839
    1TYR     BB  921   7.464   7.821   7.521
    1TYR    SC1  922   7.468   8.098   7.663
    1TYR    SC2  923   7.276   8.060   7.804
    1TYR    SC3  924   7.383   8.179   7.987
    2ILE     BB  925   7.403   7.686   7.867
    2ILE    SC1  926   7.436   7.404   7.767
    3TYR     BB  927   7.148   7.632   8.057
    3TYR    SC1  928   7.171   7.852   8.246
    3TYR    SC2  929   6.987   7.833   8.401
    3TYR    SC3  930   7.132   7.896   8.586
    1TYR     BB  931   6.879   4.796   4.825
    1TYR    SC1  932   6.974   4.980   4.592
    1TYR    SC2  933   6.860   5.179   4.665
    1TYR    SC3  934   7.048   5.316   4.595
    2ILE     BB  935   6.959   5.093   5.042
    2ILE    SC1  936   6.914   4.928   5.290
    3TYR     BB  937   6.807   5.358   5.142
    3TYR    SC1  938   6.933   5.562   4.977
    3TYR    SC2  939   6.833   5.774   5.034
    3TYR    SC3  940   7.050   5.883   5.020
    1TYR     BB  941   6.294   0.343   7.281
    1TYR    SC1  942   6.373   0.641   7.240
    1TYR    SC2  943   6.500   0.666   7.443
    1TYR    SC3  944   6.662   0.806   7.328
    2ILE     BB  945   6.654   0.302   7.384
    2ILE    SC1  946   6.620   0.003   7.393
    3TYR     BB  947   6.826   0.331   7.655
    3TYR    SC1  948   6.965   0.583   7.607
    3TYR    SC2  949   7.102   0.627   7.800
    3TYR    SC3  950   7.281   0.708   7.658
    1TYR     BB  951   5.555   5.338   6.592
    1TYR    SC1  952   5.512   5.178   6.855
    1TYR    SC2  953   5.464   4.966   6.752
    1TYR    SC3  954   5.587   4.849   6.926
    2ILE     BB  955   5.752   5.036   6.484
    2ILE    SC1  956   5.845   5.180   6.238
    3TYR     BB  957   5.690   4.752   6.344
    3TYR    SC1  958   5.711   4.571   6.571
    3TYR    SC2  959   5.668   4.348   6.490
    3TYR    SC3  960   5.844   4.259   6.631
    1TYR     BB  961   5.499   0.640   5.164
    1TYR    SC1  962   5.787   0.529   5.204
    1TYR    SC2  963   5.789   0.540   5.444
    1TYR    SC3  964   5.913   0.331   5.455
    2ILE     BB  965   5.412   0.408   5.449
    2ILE    SC1  966   5.119   0.464   5.408
    3TYR     BB  967   5.412   0.422   5.771
    3TYR    SC1  968   5.647   0.261   5.834
    3TYR    SC2  969   5.669   0.257   6.074
    3TYR    SC3  970   5.732   0.022   6.067
    1TYR     BB  971   3.741   5.066   3.684
    1TYR    SC1  972   3.850   5.301   3.857
    1TYR    SC2  973   3.818   5.474   3.694
    1TYR    SC3  974   3.751   5.630   3.867
    2ILE     BB  975   3.468   5.309   3.594
    2ILE    SC1  976   3.317   5.092   3.452
    3TYR     BB  977   3.422   5.540   3.374
    3TYR    SC1  978   3.456   5.780   3.536
    3TYR    SC2  979   3.426   5.970   3.391
    3TYR    SC3  980   3.302   6.087   3.564
    1TYR     BB  981   4.426   2.178   7.279
    1TYR    SC1  982   4.503   2.414   7.467
    1TYR    SC2  983   4.741   2.376   7.463
    1TYR    SC3  984   4.782   2.616   7.461
    2ILE     BB  985   4.717   2.296   7.072
    2ILE    SC1  986   4.642   2.106   6.852
    3TYR     BB  987   5.035   2.246   7.063
    3TYR    SC1  988   5.136   2.493   7.179
    3TYR    SC2  989   5.376   2.479   7.183
    3TYR    SC3  990   5.394   2.712   7.118
    1TYR     BB  991   2.667   2.647   5.205
    1TYR    SC1  992   2.466   2.463   5.054
    1TYR    SC2  993   2.396   2.335   5.246
    1TYR    SC3  994   2.168   2.329   5.162
    2ILE     BB  995   2.393   2.670   5.463
    2ILE    SC1  996   2.545   2.883   5.611
    3TYR     BB  997   2.299   2.501   5.721
    3TYR    SC1  998   2.063   2.365   5.617
    3TYR    SC2  999   1.973   2.229   5.795
    3TYR    SC3 1000   1.747   2.289   5.730
    4W        W 1001   0.349   1.633   2.100
    5W        W 1002   4.010   5.867   1.494
    6W        W 1003   3.772   4.299   0.403
    7W        W 1004   3.484   7.360   2.147
    8W        W 1005   2.537   3.319   3.106
    9W        W 1006   3.373   7.676   5.025
   10W        W 1007   3.635   6.731   2.684
   11W        W 1008   6.617   2.508   3.357
   12W        W 1009   0.928   6.753   6.162
   13W        W 1010   2.972   7.428   4.929
   14W        W 1011   6.117   6.459   3.240
   15W        W 1012   7.256   3.126   1.905
   16W        W 1013   4.479   7.132   6.676
   17W        W 1014   3.548   2.037   0.913
   18W        W 1015   4.614   4.267   3.949
   19W        W 1016   4.204   3.886   1.026
   20W        W 1017   3.255   5.763   3.879
   21W        W 1018   2.552   6.182   3.404
   22W        W 1019   5.594   4.501   0.154
   23W        W 1020   3.957   5.410   1.281
   24W        W 1021   0.331   3.089   3.924
   25W        W 1022   5.364   2.299   5.526
   26W        W 1023   2.937   0.037   5.008
   27W        W 1024   1.453   4.276   3.805
   28W        W 1025   3.032   2.144   5.556
   29W        W 1026   2.769   0.900   5.002
   30W        W 1027   1.095   7.587   5.519
   31W        W 1028   7.929   1.101   3.258
   32W        W 1029   0.180   4.842   4.244
   33W        W 1030   6.949   4.572   2.275
   34W        W 1031   7.654   6.841   5.972
   35W        W 1032   3.181   1.827   1.211
   36W        W 1033   4.354   0.291   4.467
   37W        W 1034   3.860   6.313   1.114
   38W        W 1035   3.545   3.352   0.603
   39W        W 1036   1.440   7.637   5.136
   40W        W 1037   5.533   0.490   3.665
   41W        W 1038   7.517   7.177   2.175
   42W        W 1039   2.251   0.633   4.073
   43W        W 1040   3.736   4.560   6.753
   44W        W 1041   7.851   2.797   3.902
   45W        W 1042   4.599   2.116   6.133
   46W        W 1043   4.568   6.469   2.461
   47W        W 1044   5.681   4.462   4.970
   48W        W 1045   5.676   1.433   2.966
   49W        W 1046   0.606   2.177   6.213
   50W        W 1047   4.639   0.850   7.747
   51W        W 1048   2.617   7.080   0.519
   52W        W 1049   1.180   3.272   4.125
   53W        W 1050   3.481   0.246   1.393
   54W        W 1051   6.733   1.195   3.868
   55W        W 1052   1.407   0.692   3.619
   56W        W 1053   3.987   7.321   3.032
   57W        W 1054   1.242   7.332   1.453
   58W        W 1055   5.253   5.959   0.677
   59W        W 1056   4.050   5.464   2.603
   60W        W 1057   6.449   1.641   4.888
   61W        W 1058   0.387   1.607   7.962
   62W        W 1059   1.261   6.947   0.428
   63W        W 1060   6.442   3.540   3.828
   64W        W 1061   3.367   3.532   4.367
   65W        W 1062   3.230   4.191   0.394
   66W        W 1063   4.803   0.282   2.107
   67W        W 1064   3.462   3.638   5.146
   68W        W 1065   6.619   6.519   2.671
   69W        W 1066   3.211   0.699   7.320
   70W        W 1067   6.292   0.807   0.486
   71W        W 1068   7.424   3.158   0.769
   72W        W 1069   5.880   5.100   7.157
   73W        W 1070   5.937   5.515   6.608
   74W        W 1071   1.608   1.490   1.416
   75W        W 1072   0.024   0.654   7.928
   76W        W 1073   5.349   6.095   3.993
   77W        W 1074   1.816   2.172   7.150
   78W        W 1075   5.173   2.658   1.706
   79W        W 1076   1.268   4.458   2.892
   80W        W 1077   7.814   7.422   5.045
   81W        W 1078   0.819   0.266   0.956
   82W        W 1079   0.750   1.601   4.399
   83W        W 1080   1.797   0.656   7.022
   84W        W 1081   4.102   4.177   4.143
   85W        W 1082   2.391   5.181   5.671
   86W        W 1083   0.259   7.046   0.824
   87W        W 1084   5.650   7.086   2.695
   88W        W 1085   6.056   5.766   5.520
   89W        W 1086   7.915   3.693   5.877
   90W        W 1087   2.142   3.523   0.605
   91W        W 1088   5.241   5.224   4.271
   92W        W 1089   2.032   0.198   0.976
   93W        W 1090   5.922   4.214   1.251
   94W        W 1091   6.591   0.284   2.179
   95W        W 1092   0.546   4.305   3.982
   96W        W 1093   2.239   4.351   6.496
   97W        W 1094   2.076   4.846   5.023
   98W        W 1095   0.275   5.572   1.494
   99W        W 1096   7.405   3.890   1.145
  100W        W 1097   3.714   5.802   5.639
  101W        W 1098   0.394   3.751   3.247
  102W        W 1099   6.165   6.953   1.111
  103W        W 1100   2.626   4.308   5.785
  104W        W 1101   7.728   0.116   7.149
  105W        W 1102   2.906   4.490   0.247
  106W        W 1103   3.678   0.463   4.635
  107W        W 1104   3.544   5.250   4.852
  108W        W 1105   7.724   7.128   1.245
  109W        W 1106   4.011   0.806   7.564
  110W        W 1107   0.266   3.307   6.067
  111W        W 1108   0.569   2.820   0.459
  112W        W 1109   5.281   7.196   5.432
  113W        W 1110   1.384   0.021   3.146
  114W        W 1111   0.853   7.400   1.141
  115W        W 1112   3.922   2.298   4.099
  116W        W 1113   5.561   0.088   6.628
  117W        W 1114   0.770   0.423   0.434
  118W        W 1115   2.607   7.020   6.969
  119W        W 1116   2.810   7.885   0.487
  120W        W 1117   3.742   4.648   2.876
  121W        W 1118   3.497   4.702   7.377
  122W        W 1119   2.552   4.984   3.352
  123W        W 1120   2.997   4.317   1.667
  124W        W 1121   6.865   3.091   5.000
  125W        W 1122   3.990   4.941   5.149
  126W        W 1123   5.907   7.058   7.581
  127W        W 1124   3.354   0.720   1.981
  128W        W 1125   6.021   3.539   3.652
  129W        W 1126   7.565   5.936   3.753
  130W        W 1127   4.262   7.625   6.543
  131W        W 1128   4.190   2.869   5.895
  132W        W 1129   7.276   5.425   2.118
  133W        W 1130   6.424   7.762   5.954
  134W        W 1131   2.332   2.230   1.251
  135W        W 1132   6.511   6.696   6.796
  136W        W 1133   0.846   5.585   3.603
  137W        W 1134   4.572   5.569   2.581
  138W        W 1135   3.491   7.120   0.669
  139W        W 1136   4.149   3.775   0.503
  140W        W 1137   4.457   1.760   0.882
  141W        W 1138   1.068   1.917   5.980
  142W        W 1139   5.990   6.957   3.045
  143W        W 1140   0.845   5.393   2.613
  144W        W 1141   2.615   3.713   1.550
  145W        W 1142   4.290   5.252   2.235
  146W        W 1143   7.292   5.438   1.135
  147W        W 1144   4.900   2.969   1.462
  148W        W 1145   4.043   3.164   1.239
  149W        W 1146   2.314   6.966   3.819
  150W        W 1147   5.000   7.333   7.344
  151W        W 1148   3.631   5.801   0.429
  152W        W 1149   6.190   6.168   2.866
  153W        W 1150   0.049   0.664   0.817
  154W        W 1151   0.564   4.822   1.825
  155W        W 1152   4.805   5.036   6.253
  156W        W 1153   7.245   2.690   7.612
  157W        W 1154   4.274   3.116   2.080
  158W        W 1155   5.786   5.809   0.667
  159W        W 1156   0.612   1.030   7.085
  160W        W 1157   0.018   3.626   5.211
  161W        W 1158   7.280   1.793   5.959
  162W        W 1159   7.009   0.626   1.518
  163W        W 1160   1.273   0.657   6.567
  164W        W 1161   0.325   6.638   1.251
  165W        W 1162   4.013   7.430   1.986
  166W        W 1163   6.418   3.571   0.115
  167W        W 1164   1.334   5.273   7.004
  168W        W 1165   5.923   0.865   0.157
  169W        W 1166   2.861   6.097   1.457
  170W        W 1167   7.281   6.851   6.945
  171W        W 1168   3.774   1.376   4.335
  172W        W 1169   3.628   3.244   0.059
  173W        W 1170   3.678   3.672   0.904
  174W        W 1171   7.741   0.449   0.390
  175W        W 1172   1.469   6.671   5.382
  176W        W 1173   2.608   7.013   1.645
  177W        W 1174   6.769   5.310   0.874
  178W        W 1175   6.324   2.586   2.869
  179W        W 1176   6.121   1.236   7.826
  180W        W 1177   7.603   5.308   4.528
  181W        W 1178   5.208   1.841   7.851
  182W        W 1179   4.545   3.698   6.398
  183W        W 1180   5.971   3.294   4.615
  184W        W 1181   1.229   1.111   5.164
  185W        W 1182   2.950   7.365   2.256
  186W        W 1183   1.495   6.815   1.374
  187W        W 1184   0.800   1.759   3.437
  188W        W 1185   3.060   1.377   1.006
  189W        W 1186   1.439   3.755   2.342
  190W        W 1187   6.225   4.142   0.710
  191W        W 1188   7.406   4.118   1.879
  192W        W 1189   4.317   0.499   1.908
  193W        W 1190   2.654   3.201   0.720
  194W        W 1191   1.345   2.618   2.437
  195W        W 1192   0.190   2.337   5.226
  196W        W 1193   2.368   0.020   4.519
  197W        W 1194   2.731   6.631   0.322
  198W        W 1195   5.736   6.311   2.823
  199W        W 1196   1.161   0.086   5.427
  200W        W 1197   5.285   7.593   5.142
  201W        W 1198   7.071   3.024   0.035
  202W        W 1199   5.973   2.274   4.878
  203W        W 1200   6.196   7.507   4.890
  204W        W 1201   2.242   4.833   0.719
  205W        W 1202   5.497   6.915   4.538
  206W        W 1203   2.980   2.287   7.647
  207W        W 1204   0.298   4.821   0.245
  208W        W 1205   1.186   3.504   2.720
  209W        W 1206   7.495   0.885   7.167
  210W        W 1207   3.843   3.473   5.560
  211W        W 1208   0.068   0.328   2.342
  212W        W 1209   5.498   6.883   4.043
  213W        W 1210   5.849   0.071   4.560
  214W        W 1211   7.408   6.166   4.959
  215W        W 1212   5.832   7.786   6.897
  216W        W 1213   0.698   6.968   1.731
  217W        W 1214   0.445   4.265   0.421
  218W        W 1215   2.499   6.618   5.107
  219W        W 1216   2.303   2.590   3.904
  220W        W 1217   0.907   7.773   0.823
  221W        W 1218   0.171   7.871   4.160
  222W        W 1219   0.862   3.544   6.816
  223W        W 1220   3.565   0.598   0.972
  224W        W 1221   7.556   5.320   3.163
  225W        W 1222   7.566   2.429   7.824
  226W        W 1223   3.559   1.697   5.985
  227W        W 1224   6.247   7.451   7.550
  228W        W 1225   1.325   5.009   3.067
  229W        W 1226   3.618   0.917   3.868
  230W        W 1227   6.745   7.306   0.052
  231W        W 1228   6.058   3.145   0.224
  232W        W 1229   2.843   6.163   4.726
  233W        W 1230   1.682   5.368   1.491
  234W        W 1231   3.664   4.151   3.681
  235W        W 1232   2.867   2.023   2.130
  236W        W 1233   3.002   6.463   5.114
  237W        W 1234   7.841   5.773   4.474
  238W        W 1235   6.988   1.672   0.535
  239W        W 1236   7.317   7.251   0.731
  240W        W 1237   2.995   1.542   6.545
  241W        W 1238   5.791   3.202   6.485
  242W        W 1239   7.851   2.088   6.810
  243W        W 1240   1.278   4.324   5.223
  244W        W 1241   4.800   6.174   2.801
  245W        W 1242   0.995   2.283   0.036
  246W        W 1243   1.393   3.615   0.220
  247W        W 1244   2.434   5.388   4.233
  248W        W 1245   2.627   0.058   3.162
  249W        W 1246   6.572   3.457   4.822
  250W        W 1247   2.301   7.087   5.753
  251W        W 1248   1.257   2.988   3.634
  252W        W 1249   1.958   2.741   4.232
  253W        W 1250   1.209   3.848   3.757
  254W        W 1251   6.559   4.297   3.034
  255W        W 1252   1.930   4.403   3.622
  256W        W 1253   1.653   2.963   7.762
  257W        W 1254   0.845   0.004   1.893
  258W        W 1255   3.685   4.593   1.142
  259W        W 1256   4.763   6.233   1.425
  260W        W 1257   1.429   1.504   5.383
  261W        W 1258   3.548   0.353   4.147
  262W        W 1259   1.814   4.223   0.816
  263W        W 1260   2.405   3.182   5.125
  264W        W 1261   1.022   4.864   2.682
  265W        W 1262   2.301   1.283   3.573
  266W        W 1263   5.328   7.070   1.319
  267W        W 1264   5.922   4.946   4.852
  268W        W 1265   5.649   3.354   2.642
  269W        W 1266   3.528   6.732   6.577
  270W        W 1267   7.641   5.803   3.075
  271W        W 1268   5.314   0.911   3.796
  272W        W 1269   5.943   4.663   6.881
  273W        W 1270   1.579   5.387   0.174
  274W        W 1271   0.395   0.226   3.592
  275W        W 1272   0.846   4.409   1.617
  276W        W 1273   0.108   5.363   5.096
  277W        W 1274   7.672   6.207   4.515
  278W        W 1275   5.229   4.522   7.471
  279W        W 1276   1.375   3.430   1.164
  280W        W 1277   1.671   4.157   5.560
  281W        W 1278   1.383   5.875   3.643
  282W        W 1279   5.422   3.768   7.884
  283W        W 1280   6.533   5.993   5.084
  284W        W 1281   3.025   4.593   7.244
  285W        W 1282   5.675   6.250   7.689
  286W        W 1283   4.342   0.358   3.837
  287W        W 1284   4.244   0.539   5.236
  288W        W 1285   3.775   3.827   1.334
  289W        W 1286   1.353   5.632   0.531
  290W        W 1287   0.524   2.258   3.431
  291W        W 1288   2.563   2.588   2.961
  292W        W 1289   5.677   6.043   5.750
  293W        W 1290   0.087   7.329   0.257
  294W        W 1291   1.748   1.354   0.943
  295W        W 1292   1.742   1.862   7.722
  296W        W 1293   0.114   5.180   2.143
  297W        W 1294   6.784   5.617   3.362
  298W        W 1295   2.731   4.151   6.901
  299W        W 1296   0.422   5.714   0.978
  300W        W 1297   2.350   4.732   5.471
  301W        W 1298   7.841   4.210   2.193
  302W        W 1299   2.805   1.992   3.466
  303W        W 1300   6.557   0.721   1.160
  304W        W 1301   1.979   2.104   6.411
  305W        W 1302   3.150   3.798   1.634
  306W        W 1303   4.588   6.991   0.788
  307W        W 1304   6.939   4.095   0.989
  308W        W 1305   6.224   0.691   6.822
  309W        W 1306   0.524   7.235   5.057
  310W        W 1307   6.416   6.936   7.574
  311W        W 1308   2.712   4.367   2.746
  312W        W 1309   5.425   3.722   2.390
  313W        W 1310   6.697   4.696   3.271
  314W        W 1311   5.016   5.636   1.548
  315W        W 1312   1.617   1.242   2.597
  316W        W 1313   2.148   5.449   2.572
  317W        W 1314   3.105   0.486   4.764
  318W        W 1315   4.110   0.556   3.277
  319W        W 1316   7.241   7.263   5.065
  320W        W 1317   2.191   7.073   3.340
  321W        W 1318   6.899   1.528   7.660
  322W        W 1319   0.805   4.184   0.003
  323W        W 1320   5.704   5.121   3.873
  324W        W 1321   0.520   2.210   6.938
  325W        W 1322   7.000   5.390   5.643
  326W        W 1323   2.837   5.883   7.389
  327W        W 1324   6.816   7.096   0.521
  328W        W 1325   4.889   1.207   6.940
  329W        W 1326   6.705   3.832   0.546
  330W        W 1327   6.985   6.398   1.029
  331W        W 1328   5.003   2.040   3.247
  332W        W 1329   3.324   5.958   2.361
  333W        W 1330   6.530   3.909   6.745
  334W        W 1331   2.133   6.592   5.974
  335W        W 1332   0.997   2.101   5.539
  336W        W 1333   1.283   4.261   2.374
  337W        W 1334   6.342   1.268   6.690
  338W        W 1335   1.301   6.551   2.309
  339W        W 1336   0.777   1.492   0.827
  340W        W 1337   2.547   1.040   6.531
  341W        W 1338   3.382   1.587   2.877
  342W        W 1339   7.406   4.704   5.392
  343W        W 1340   6.076   0.833   5.340
  344W        W 1341   2.768   3.633   7.114
  345W        W 1342   7.273   3.416   1.170
  346W        W 1343   6.681   7.391   7.347
  347W        W 1344   5.999   6.606   7.491
  348W        W 1345   1.627   0.717   2.411
  349W        W 1346   0.098   2.832   0.606
  350W        W 1347   2.497   5.124   1.054
  351W        W 1348   5.570   2.933   1.837
  352W        W 1349   5.911   3.237   3.193
  353W        W 1350   7.768   3.432   4.713
  354W        W 1351   4.981   5.828   7.675
  355W        W 1352   4.575   2.868   4.304
  356W        W 1353   4.481   7.411   7.134
  357W        W 1354   2.646   5.930   6.748
  358W        W 1355   5.963   5.419   1.042
  359W        W 1356   5.321   1.660   3.240
  360W        W 1357   4.818   5.202   6.966
  361W        W 1358   5.537   3.717   0.458
  362W        W 1359   4.323   2.836   0.552
  363W        W 1360   0.306   1.856   4.245
  364W        W 1361   7.326   2.967   4.964
  365W        W 1362   4.214   5.143   5.601
  366W        W 1363   5.152   1.309   0.457
  367W        W 1364   4.337   3.721   2.079
  368W        W 1365   6.462   2.244   2.499
  369W        W 1366   2.193   3.020   0.659
  370W        W 1367   3.073   3.541   4.860
  371W        W 1368   6.039   6.093   7.368
  372W        W 1369   7.456   5.787   1.422
  373W        W 1370   5.332   1.206   5.178
  374W        W 1371   5.119   3.721   2.772
  375W        W 1372   7.500   3.732   7.005
  376W        W 1373   4.362   4.703   3.421
  377W        W 1374   4.862   0.087   1.302
  378W        W 1375   1.016   1.658   3.062
  379W        W 1376   6.397   4.930   5.059
  380W        W 1377   4.367   0.630   6.638
  381W        W 1378   0.573   6.303   0.535
  382W        W 1379   0.523   0.084   2.524
  383W        W 1380   5.668   7.368   6.679
  384W        W 1381   0.892   2.859   2.310
  385W        W 1382   1.603   4.785   3.774
  386W        W 1383   7.206   6.744   0.661
  387W        W 1384   3.928   5.259   4.369
  388W        W 1385   6.934   1.523   1.598
  389W        W 1386   6.265   3.953   2.164
  390W        W 1387   3.423   1.148   3.498
  391W        W 1388   0.241   3.307   1.316
  392W        W 1389   0.183   1.030   1.247
  393W        W 1390   0.825   0.474   5.265
  394W        W 1391   5.192   6.883   7.365
  395W        W 1392   5.184   4.770   1.939
  396W        W 1393   1.362   4.615   3.381
  397W        W 1394   5.576   7.464   1.775
  398W        W 1395   1.752   2.802   3.190
  399W        W 1396   2.681   4.176   7.386
  400W        W 1397   0.707   7.542   3.167
  401W        W 1398   6.379   5.864   6.323
  402W        W 1399   1.168   3.771   4.365
  403W        W 1400   2.601   7.345   6.069
  404W        W 1401   3.601   2.142   5.778
  405W        W 1402   0.563   6.180   0.034
  406W        W 1403   0.615   1.893   5.790
  407W        W 1404   3.021   6.917   3.273
  408W        W 1405   2.204   3.416   0.101
  409W        W 1406   7.823   1.835   5.082
  410W        W 1407   6.666   3.551   7.171
  411W        W 1408   3.953   1.633   4.995
  412W        W 1409   0.166   5.804   4.064
  413W        W 1410   2.339   0.609   0.742
  414W        W 1411   3.541   1.808   0.365
  415W        W 1412   6.492   5.083   5.554
  416W        W 1413   0.928   1.731   3.962
  417W        W 1414   7.648   1.659   2.228
  418W        W 1415   2.496   1.095   3.080
  419W        W 1416   0.595   3.849   4.288
  420W        W 1417   6.042   1.134   3.217
  421W        W 1418   3.435   2.324   4.412
  422W        W 1419   4.477   3.244   7.145
  423W        W 1420   2.804   5.000   7.134
  424W        W 1421   5.180   3.234   1.965
  425W        W 1422   3.374   6.613   3.132
  426W        W 1423   7.344   7.811   6.781
  427W        W 1424   0.731   3.864   1.693
  428W        W 1425   7.213   1.344   6.940
  429W        W 1426   4.272   7.015   3.315
  430W        W 1427   1.687   4.864   5.992
  431W        W 1428   5.991   0.370   6.393
  432W        W 1429   6.254   6.507   4.976
  433W        W 1430   0.761   1.889   0.418
  434W        W 1431   7.669   4.637   0.673
  435W        W 1432   6.150   4.390   4.087
  436W        W 1433   4.368   6.712   2.046
  437W        W 1434   4.959   3.917   5.607
  438W        W 1435   6.680   1.515   3.000
  439W        W 1436   1.139   0.905   1.385
  440W        W 1437   3.135   4.586   7.784
  441W        W 1438   5.608   4.952   0.798
  442W        W 1439   3.147   0.050   4.128
  443W        W 1440   1.467   5.549   4.738
  444W        W 1441   2.707   0.257   1.550
  445W        W 1442   7.276   2.491   0.280
  446W        W 1443   1.401   0.343   7.024
  447W        W 1444   5.050   7.122   0.900
  448W        W 1445   1.652   5.783   5.755
  449W        W 1446   3.212   4.240   6.956
  450W        W 1447   6.014   3.418   5.597
  451W        W 1448   5.090   3.496   3.901
  452W        W 1449   2.204   1.607   1.031
  453W        W 1450   5.933   7.313   7.178
  454W        W 1451   0.423   3.184   2.254
  455W        W 1452   7.671   3.454   3.286
  456W        W 1453   3.274   1.647   2.093
  457W        W 1454   1.492   2.380   7.774
  458W        W 1455   5.842   1.869   0.596
  459W        W 1456   6.914   3.731   3.693
  460W        W 1457   6.665   6.398   5.403
  461W        W 1458   7.928   0.867   6.951
  462W        W 1459   4.297   1.466   3.131
  463W        W 1460   6.904   5.757   2.450
  464W        W 1461   0.487   6.888   0.434
  465W        W 1462   2.757   4.564   4.506
  466W        W 1463   1.409   7.471   2.213
  467W        W 1464   1.523   3.008   5.442
  468W        W 1465   4.673   2.041   7.892
  469W        W 1466   2.859   1.881   4.174
  470W        W 1467   0.198   1.316   1.688
  471W        W 1468   6.652   7.714   3.202
  472W        W 1469   2.427   3.180   2.033
  473W        W 1470   7.092   2.642   5.770
  474W        W 1471   2.646   2.891   3.764
  475W        W 1472   2.531   3.557   4.853
  476W        W 1473   6.769   2.803   5.426
  477W        W 1474   1.299   3.182   0.545
  478W        W 1475   1.273   1.200   2.197
  479W        W 1476   7.431   1.580   4.839
  480W        W 1477   0.548   4.539   4.546
  481W        W 1478   0.391   3.199   3.101
  482W        W 1479   4.071   4.230   5.690
  483W        W 1480   3.950   2.589   7.550
  484W        W 1481   7.042   2.932   0.499
  485W        W 1482   1.247   5.733   2.433
  486W        W 1483   2.995   7.596   5.450
  487W        W 1484   4.314   4.547   4.889
  488W        W 1485   6.508   7.541   1.735
  489W        W 1486   4.688   3.956   2.447
  490W        W 1487   6.934   7.511   5.920
  491W        W 1488   5.246   2.577   1.201
  492W        W 1489   0.639   4.149   1.266
  493W        W 1490   7.077   6.869   0.119
  494W        W 1491   6.566   3.867   3.310
  495W        W 1492   1.810   1.959   3.307
  496W        W 1493   2.555   5.326   7.457
  497W        W 1494   5.703   3.147   5.174
  498W        W 1495   6.534   2.133   3.736
  499W        W 1496   4.633   0.642   4.197
  500W        W 1497   3.496   3.235   4.749
  501W        W 1498   2.983   1.256   3.038
  502W        W 1499   5.067   6.904   3.109
  503W        W 1500   0.177   6.841   5.469
  504W        W 1501   0.100   5.858   0.041
  505W        W 1502   5.120   6.472   2.237
  506W        W 1503   7.425   1.891   3.543
  507W        W 1504   3.346   3.366   2.062
  508W        W 1505   2.905   0.493   5.326
  509W        W 1506   1.813   1.775   4.665
  510W        W 1507   7.582   0.005   3.042
  511W        W 1508   7.277   4.794   2.733
  512W        W 1509   0.830   1.719   7.354
  513W        W 1510   5.349   4.628   4.057
  514W        W 1511   4.353   3.959   0.011
  515W        W 1512   4.966   2.867   6.984
  516W        W 1513   1.262   3.033   5.054
  517W        W 1514   6.613   7.421   6.380
  518W        W 1515   4.620   3.907   0.719
  519W        W 1516   7.792   6.749   0.286
  520W        W 1517   7.772   0.232   5.642
  521W        W 1518   5.982   5.966   5.055
  522W        W 1519   0.497   0.157   4.251
  523W        W 1520   6.420   7.919   0.320
  524W        W 1521   4.342   2.977   1.604
  525W        W 1522   2.628   3.594   2.729
  526W        W 1523   4.653   2.617   1.232
  527W        W 1524   7.318   0.141   6.262
  528W        W 1525   6.209   0.931   1.592
  529W        W 1526   0.889   5.918   0.791
  530W        W 1527   0.322   3.167   4.880
  531W        W 1528   6.479   5.093   4.224
  532W        W 1529   4.184   0.803   1.556
  533W        W 1530   5.660   4.132   7.602
  534W        W 1531   1.283   4.695   6.268
  535W        W 1532   1.247   6.209   5.510
  536W        W 1533   4.110   1.383   5.752
  537W        W 1534   4.118   4.271   1.307
  538W        W 1535   7.238   4.283   6.320
  539W        W 1536   7.635   5.228   2.470
  540W        W 1537   0.324   3.610   2.813
  541W        W 1538   0.224   3.742   0.793
  542W        W 1539   1.908   6.078   7.028
  543W        W 1540   0.717   3.486   0.585
  544W        W 1541   6.343   2.126   3.278
  545W        W 1542   3.835   1.255   7.451
  546W        W 1543   3.187   0.885   5.582
  547W        W 1544   5.502   3.440   1.015
  548W        W 1545   0.033   4.036   6.689
  549W        W 1546   7.723   6.265   7.387
  550W        W 1547   5.805   4.808   1.212
  551W        W 1548   6.441   5.309   7.423
  552W        W 1549   5.144   5.357   7.685
  553W        W 1550   7.520   2.191   7.253
  554W        W 1551   0.035   2.034   2.958
  555W        W 1552   3.017   5.364   3.640
  556W        W 1553   0.318   4.358   1.668
  557W        W 1554   1.437   0.553   6.083
  558W        W 1555   2.542   1.777   2.588
  559W        W 1556   5.808   0.551   0.559
  560W        W 1557   7.877   2.039   7.607
  561W        W 1558   2.582   7.435   4.585
  562W        W 1559   2.080   0.539   4.640
  563W        W 1560   4.426   0.669   2.879
  564W        W 1561   4.071   2.436   0.616
  565W        W 1562   4.606   5.967   5.119
  566W        W 1563   2.536   0.558   5.816
  567W        W 1564   7.413   4.681   5.948
  568W        W 1565   3.832   7.376   0.280
  569W        W 1566   0.286   5.890   4.577
  570W        W 1567   2.289   0.991   6.095
  571W        W 1568   2.265   7.063   5.248
  572W        W 1569   7.324   0.298   1.252
  573W        W 1570   2.160   2.927   2.892
  574W        W 1571   1.774   5.224   7.423
  575W        W 1572   5.627   3.686   6.405
  576W        W 1573   7.259   2.940   1.332
  577W        W 1574   2.877   6.251   5.587
  578W        W 1575   1.227   1.237   0.955
  579W        W 1576   1.792   4.490   5.249
  580W        W 1577   3.396   7.434   1.537
  581W        W 1578   4.232   3.931   7.043
  582W        W 1579   1.236   7.565   4.667
  583W        W 1580   3.495   4.730   6.042
  584W        W 1581   5.740   1.246   1.262
  585W        W 1582   3.007   1.081   6.393
  586W        W 1583   2.289   3.106   4.016
  587W        W 1584   5.397   7.156   7.021
  588W        W 1585   1.348   2.195   4.747
  589W        W 1586   2.805   4.665   6.760
  590W        W 1587   6.100   1.214   7.252
  591W        W 1588   6.460   0.201   5.175
  592W        W 1589   4.819   3.146   4.692
  593W        W 1590   7.781   7.076   4.202
  594W        W 1591   5.101   1.691   1.163
  595W        W 1592   6.234   3.081   6.213
  596W        W 1593   6.922   4.502   4.361
  597W        W 1594   2.383   7.524   6.951
  598W        W 1595   2.800   6.112   3.806
  599W        W 1596   7.563   0.563   0.850
  600W        W 1597   6.503   3.116   0.416
  601W        W 1598   5.289   4.868   1.395
  602W        W 1599   7.587   4.028   2.743
  603W        W 1600   5.202   0.039   1.816
  604W        W 1601   3.216   2.553   6.908
  605W        W 1602   4.125   0.137   4.980
  606W        W 1603   4.016   0.967   6.795
  607W        W 1604   6.426   3.661   7.654
  608W        W 1605   5.652   1.070   7.518
  609W        W 1606   3.738   3.949   6.893
  610W        W 1607   6.105   3.523   5.085
  611W        W 1608   1.396   5.128   1.171
  612W        W 1609   5.814   6.463   4.070
  613W        W 1610   6.426   6.802   4.629
  614W        W 1611   1.918   1.408   3.199
  615W        W 1612   7.535   3.451   6.572
  616W        W 1613   4.761   4.458   7.624
  617W        W 1614   2.863   3.651   4.411
  618W        W 1615   3.124   4.803   5.673
  619W        W 1616   7.743   2.535   6.986
  620W        W 1617   3.772   5.184   5.908
  621W        W 1618   7.319   0.592   3.824
  622W        W 1619   0.942   3.312   3.162
  623W        W 1620   0.700   2.625   7.709
  624W        W 1621   7.696   4.389   5.619
  625W        W 1622   3.732   1.920   4.338
  626W        W 1623   2.483   6.525   4.522
  627W        W 1624   5.663   7.312   0.318
  628W        W 1625   6.666   1.431   7.086
  629W        W 1626   4.791   5.033   4.367
  630W        W 1627   7.727   7.693   5.756
  631W        W 1628   3.053   0.148   6.574
  632W        W 1629   4.099   7.265   7.501
  633W        W 1630   7.142   7.191   3.641
  634W        W 1631   5.643   4.973   1.712
  635W        W 1632   3.923   5.851   2.934
  636W        W 1633   1.047   0.730   0.842
  637W        W 1634   3.634   0.799   1.537
  638W        W 1635   3.739   6.172   4.685
  639W        W 1636   2.692   1.409   4.344
  640W        W 1637   0.747   7.548   4.601
  641W        W 1638   7.994   6.359   3.127
  642W        W 1639   1.802   3.796   0.068
  643W        W 1640   4.654   7.471   0.948
  644W        W 1641   3.264   6.732   4.230
  645W        W 1642   1.008   3.978   2.077
  646W        W 1643   0.677   1.078   1.695
  647W        W 1644   7.017   4.256   1.494
  648W        W 1645   6.891   6.336   5.858
  649W        W 1646   5.465   1.586   6.276
  650W        W 1647   1.614   5.297   3.790
  651W        W 1648   1.659   3.056   1.384
  652W        W 1649   1.408   3.908   7.214
  653W        W 1650   1.016   3.415   6.237
  654W        W 1651   5.945   7.734   0.261
  655W        W 1652   1.525   2.450   0.197
  656W        W 1653   7.895   6.664   1.385
  657W        W 1654   6.962   5.885   4.657
  658W        W 1655   4.583   7.146   2.891
  659W        W 1656   1.597   5.021   4.554
  660W        W 1657   4.845   3.903   4.494
  661W        W 1658   3.044   4.869   6.206
  662W        W 1659   7.135   0.546   6.432
  663W        W 1660   2.900   5.411   5.076
  664W        W 1661   3.065   2.670   2.662
  665W        W 1662   3.117   0.315   2.395
  666W        W 1663   6.485   0.695   2.439
  667W        W 1664   3.708   0.846   7.169
  668W        W 1665   5.315   1.012   2.156
  669W        W 1666   1.212   6.050   4.135
  670W        W 1667   4.418   4.685   2.333
  671W        W 1668   5.465   5.844   3.535
  672W        W 1669   3.117   3.245   0.875
  673W        W 1670   3.302   5.552   5.361
  674W        W 1671   7.441   2.521   4.771
  675W        W 1672   3.114   6.425   0.093
  676W        W 1673   4.183   0.432   5.722
  677W        W 1674   3.636   4.251   6.241
  678W        W 1675   4.758   3.178   2.262
  679W        W 1676   1.587   1.163   3.531
  680W        W 1677   7.052   4.064   4.338
  681W        W 1678   0.063   3.334   1.877
  682W        W 1679   4.492   2.315   5.164
  683W        W 1680   6.124   5.431   3.999
  684W        W 1681   2.929   3.730   6.663
  685W        W 1682   6.545   0.630   1.750
  686W        W 1683   3.666   1.042   2.376
  687W        W 1684   4.892   0.678   3.118
  688W        W 1685   6.602   4.315   3.583
  689W        W 1686   5.543   6.725   3.066
  690W        W 1687   4.428   4.893   7.861
  691W        W 1688   0.894   5.629   7.825
  692W        W 1689   1.349   4.504   5.750
  693W        W 1690   7.084   3.028   2.700
  694W        W 1691   5.021   6.502   4.099
  695W        W 1692   5.809   4.553   3.736
  696W        W 1693   7.200   6.199   0.631
  697W        W 1694   7.863   0.510   3.663
  698W        W 1695   3.006   4.287   2.349
  699W        W 1696   6.192   5.055   6.704
  700W        W 1697   0.096   5.650   2.097
  701W        W 1698   5.053   5.760   2.776
  702W        W 1699   4.905   1.783   2.274
  703W        W 1700   2.920   7.448   6.800
  704W        W 1701   0.547   1.496   2.918
  705W        W 1702   0.045   5.409   0.230
  706W        W 1703   3.246   0.574   7.868
  707W        W 1704   6.209   6.210   5.412
  708W        W 1705   0.915   3.151   0.918
  709W        W 1706   3.496   1.107   2.959
  710W        W 1707   1.212   3.620   1.771
  711W        W 1708   1.071   5.493   0.947
  712W        W 1709   0.202   1.289   7.218
  713W        W 1710   6.261   0.329   0.226
  714W        W 1711   4.346   7.524   2.685
  715W        W 1712   2.680   2.372   6.812
  716W        W 1713   0.272   4.236   0.905
  717W        W 1714   5.840   5.692   4.668
  718W        W 1715   2.766   1.303   5.679
  719W        W 1716   6.359   6.594   1.848
  720W        W 1717   5.430   2.222   2.987
  721W        W 1718   4.265   1.979   4.152
  722W        W 1719   0.352   0.725   0.326
  723W        W 1720   5.441   5.763   1.841
  724W        W 1721   0.531   2.365   5.632
  725W        W 1722   2.954   1.700   1.674
  726W        W 1723   0.649   2.401   2.353
  727W        W 1724   1.721   3.936   3.585
  728W        W 1725   3.599   7.066   1.749
  729W        W 1726   6.342   3.027   5.733
  730W        W 1727   4.090   4.384   7.175
  731W        W 1728   5.545   4.090   2.682
  732W        W 1729   2.264   5.237   2.081
  733W        W 1730   3.245   6.402   1.144
  734W        W 1731   3.932   3.889   7.439
  735W        W 1732   5.110   0.302   7.294
  736W        W 1733   2.502   6.522   3.966
  737W        W 1734   4.040   7.897   1.758
  738W        W 1735   5.233   2.606   3.191
  739W        W 1736   5.567   7.716   0.647
  740W        W 1737   4.869   1.991   7.449
  741W        W 1738   3.390   3.753   2.940
  742W        W 1739   0.812   1.401   2.087
  743W        W 1740   3.202   6.231   7.403
  744W        W 1741   1.524   6.920   4.096
  745W        W 1742   1.421   1.412   3.028
  746W        W 1743   7.420   1.326   1.427
  747W        W 1744   2.017   4.018   0.446
  748W        W 1745   2.558   2.666   6.394
  749W        W 1746   4.214   0.131   6.769
  750W        W 1747   7.651   2.160   5.691
  751W        W 1748   3.022   1.017   1.382
  752W        W 1749   6.438   3.904   5.094
  753W        W 1750   2.562   1.742   0.562
  754W        W 1751   7.000   6.917   1.133
  755W        W 1752   3.171   7.858   5.933
  756W        W 1753   5.918   1.346   4.481
  757W        W 1754   7.354   5.835   6.709
  758W        W 1755   1.022   7.298   5.068
  759W        W 1756   1.637   3.652   1.536
  760W        W 1757   4.056   4.719   5.852
  761W        W 1758   5.083   0.796   4.373
  762W        W 1759   3.569   7.764   1.852
  763W        W 1760   3.311   0.291   3.292
  764W        W 1761   1.888   2.036   1.124
  765W        W 1762   3.141   5.918   4.320
  766W        W 1763   1.164   5.531   1.461
  767W        W 1764   5.900   4.482   7.822
  768W        W 1765   2.393   6.021   7.142
  769W        W 1766   3.922   4.919   2.477
  770W        W 1767   3.203   4.382   3.852
  771W        W 1768   3.175   1.203   2.536
  772W        W 1769   0.138   4.991   3.804
  773W        W 1770   6.678   2.203   6.575
  774W        W 1771   4.582   7.078   7.520
  775W        W 1772   7.080   0.317   2.566
  776W        W 1773   7.047   0.066   2.996
  777W        W 1774   1.420   6.824   7.049
  778W        W 1775   5.599   1.795   1.442
  779W        W 1776   1.079   1.219   7.341
  780W        W 1777   6.324   7.800   5.275
  781W        W 1778   3.814   6.348   3.067
  782W        W 1779   0.638   6.022   7.278
  783W        W 1780   7.838   7.938   6.760
  784W        W 1781   5.724   3.797   7.221
  785W        W 1782   6.550   6.219   6.919
  786W        W 1783   4.141   2.484   1.491
  787W        W 1784   4.366   4.879   1.892
  788W        W 1785   3.890   4.464   5.227
  789W        W 1786   4.322   4.220   2.198
  790W        W 1787   7.712   6.556   5.491
  791W        W 1788   6.681   0.257   1.311
  792W        W 1789   6.360   0.096   6.675
  793W        W 1790   3.641   2.035   4.803
  794W        W 1791   5.137   0.074   6.827
  795W        W 1792   1.201   2.145   0.449
  796W        W 1793   6.194   7.259   6.684
  797W        W 1794   5.710   6.609   4.849
  798W        W 1795   3.286   6.929   2.196
  799W        W 1796   1.462   2.385   3.446
  800W        W 1797   6.538   2.591   5.035
  801W        W 1798   6.993   6.038   1.494
  802W        W 1799   6.291   2.003   5.622
  803W        W 1800   6.843   6.613   4.968
  804W        W 1801   1.628   5.686   7.034
  805W        W 1802   0.372   5.154   0.568
  806W        W 1803   0.192   7.138   1.280
  807W        W 1804   1.536   1.917   5.082
  808W        W 1805   7.188   6.624   5.549
  809W        W 1806   3.745   5.473   2.203
  810W        W 1807   2.387   1.610   3.010
  811W        W 1808   2.750   7.132   5.512
  812W        W 1809   3.574   6.717   1.410
  813W        W 1810   5.807   3.849   2.025
  814W        W 1811   4.042   6.809   2.948
  815W        W 1812   2.298   5.809   2.189
  816W        W 1813   5.793   4.260   3.313
  817W        W 1814   6.593   6.010   1.145
  818W        W 1815   3.303   7.064   4.739
  819W        W 1816   5.584   4.019   1.010
  820W        W 1817   7.298   7.951   2.552
  821W        W 1818   7.551   2.447   6.509
  822W        W 1819   4.137   1.128   2.129
  823W        W 1820   3.710   2.616   7.064
  824W        W 1821   2.771   3.120   1.212
  825W        W 1822   7.193   3.845   6.617
  826W        W 1823   5.959   1.680   4.854
  827W        W 1824   4.010   1.473   0.865
  828W        W 1825   3.907   1.399   6.185
  829W        W 1826   5.565   4.482   1.544
  830W        W 1827   0.017   2.878   5.815
  831W        W 1828   5.654   3.685   5.857
  832W        W 1829   4.875   6.902   5.078
  833W        W 1830   0.603   3.088   3.538
  834W        W 1831   0.824   2.973   4.029
  835W        W 1832   3.367   0.318   5.128
  836W        W 1833   4.797   7.291   3.383
  837W        W 1834   2.473   6.320   6.284
  838W        W 1835   2.635   3.243   6.778
  839W        W 1836   2.664   7.910   6.859
  840W        W 1837   7.209   0.112   5.633
  841W        W 1838   5.711   6.140   6.348
  842W        W 1839   1.742   2.104   3.805
  843W        W 1840   3.532   5.255   7.353
  844W        W 1841   6.076   2.859   0.746
  845W        W 1842   6.226   3.159   6.787
  846W        W 1843   4.746   7.648   6.686
  847W        W 1844   1.311   2.704   1.901
  848W        W 1845   5.397   2.054   0.944
  849W        W 1846   6.285   2.643   0.354
  850W        W 1847   3.694   0.903   0.452
  851W        W 1848   1.893   0.839   0.304
  852W        W 1849   0.295   2.665   3.303
  853W        W 1850   7.262   3.375   4.721
  854W        W 1851   4.021   3.014   6.903
  855W        W 1852   1.218   0.494   3.184
  856W        W 1853   0.889   0.470   6.247
  857W        W 1854   1.938   1.209   7.165
  858W        W 1855   5.653   2.313   7.951
  859W        W 1856   0.735   2.826   3.144
  860W        W 1857   1.304   4.926   7.471
  861W        W 1858   5.556   0.551   6.714
  862W        W 1859   6.728   3.740   2.280
  863W        W 1860   5.114   4.551   0.243
  864W        W 1861   7.038   6.970   1.620
  865W        W 1862   4.001   1.172   5.234
  866W        W 1863   0.496   5.291   6.603
  867W        W 1864   3.944   7.955   0.814
  868W        W 1865   0.546   3.519   6.411
  869W        W 1866   2.529   7.416   0.197
  870W        W 1867   0.703   1.015   5.857
  871W        W 1868   7.105   6.582   2.538
  872W        W 1869   3.681   1.747   6.533
  873W        W 1870   0.915   3.159   7.669
  874W        W 1871   5.819   7.572   7.811
  875W        W 1872   4.667   0.544   5.546
  876W        W 1873   3.351   4.753   2.063
  877W        W 1874   5.804   2.667   1.240
  878W        W 1875   5.441   2.297   0.320
  879W        W 1876   4.362   1.525   5.319
  880W        W 1877   7.313   0.298   1.797
  881W        W 1878   0.001   1.151   2.642
  882W        W 1879   6.472   4.314   2.496
  883W        W 1880   3.087   7.268   4.331
  884W        W 1881   2.723   7.498   7.370
  885W        W 1882   1.157   0.291   0.019
  886W        W 1883   0.068   3.400   6.557
  887W        W 1884   2.906   7.091   6.429
  888W        W 1885   4.511   5.557   4.874
  889W        W 1886   5.860   4.474   0.835
  890W        W 1887   3.140   5.477   4.628
  891W        W 1888   6.893   6.693   6.422
  892W        W 1889   2.906   6.379   4.289
  893W        W 1890   2.871   6.934   7.424
  894W        W 1891   0.478   0.095   5.483
  895W        W 1892   3.712   2.699   1.305
  896W        W 1893   4.092   2.239   3.547
  897W        W 1894   1.500   0.397   0.922
  898W        W 1895   5.036   3.241   1.043
  899W        W 1896   6.763   3.246   7.585
  900W        W 1897   4.943   4.920   7.811
  901W        W 1898   4.566   3.157   5.852
  902W        W 1899   2.943   6.998   3.799
  903W        W 1900   0.515   7.604   2.725
  904W        W 1901   2.104   3.453   2.841
  905W        W 1902   6.428   6.822   5.303
  906W        W 1903   4.563   5.871   1.652
  907W        W 1904   0.128   4.512   3.746
  908W        W 1905   0.526   5.648   5.930
  909W        W 1906   6.709   2.108   2.927
  910W        W 1907   1.515   2.327   6.240
  911W        W 1908   4.465   5.572   7.382
  912W        W 1909   6.941   6.530   3.030
  913W        W 1910   5.805   4.177   6.037
  914W        W 1911   7.004   1.155   1.234
  915W        W 1912   0.388   3.811   5.758
  916W        W 1913   4.005   3.468   7.190
  917W        W 1914   5.202   7.213   4.833
  918W        W 1915   0.297   4.506   5.010
  919W        W 1916   4.296   4.753   2.859
  920W        W 1917   2.726   5.544   0.325
  921W        W 1918   3.337   2.878   3.083
  922W        W 1919   3.582   0.331   2.203
  923W        W 1920   6.898   1.536   4.724
  924W        W 1921   2.483   1.644   3.901
  925W        W 1922   5.851   5.987   3.251
  926W        W 1923   4.864   5.840   1.046
  927W        W 1924   6.844   3.175   3.995
  928W        W 1925   0.518   3.301   1.767
  929W        W 1926   5.552   1.919   4.293
  930W        W 1927   5.767   1.207   5.472
  931W        W 1928   3.918   3.500   2.945
  932W        W 1929   6.334   2.871   1.214
  933W        W 1930   7.759   4.400   7.436
  934W        W 1931   7.745   7.456   3.841
  935W        W 1932   1.428   5.400   5.470
  936W        W 1933   7.012   3.763   1.423
  937W        W 1934   2.536   2.445   3.485
  938W        W 1935   1.085   2.146   3.233
  939W        W 1936   2.839   4.805   5.160
  940W        W 1937   6.972   6.161   3.542
  941W        W 1938   0.454   3.077   0.898
  942W        W 1939   1.276   5.980   1.156
  943W        W 1940   4.396   0.151   0.998
  944W        W 1941   3.757   0.708   5.103
  945W        W 1942   5.179   7.568   1.086
  946W        W 1943   3.198   1.616   3.374
  947W        W 1944   7.319   5.022   0.938
  948W        W 1945   6.514   6.061   2.216
  949W        W 1946   3.013   2.894   6.527
  950W        W 1947   0.221   2.667   1.105
  951W        W 1948   5.527   2.920   0.879
  952W        W 1949   7.000   1.626   3.893
  953W        W 1950   0.082   5.279   5.631
  954W        W 1951   6.018   0.832   1.040
  955W        W 1952   1.077   0.354   4.798
  956W        W 1953   2.600   5.145   3.858
  957W        W 1954   5.689   2.920   2.350
  958W        W 1955   6.357   6.420   4.224
  959W        W 1956   2.504   2.739   0.926
  960W        W 1957   2.973   3.959   2.779
  961W        W 1958   7.246   1.188   5.668
  962W        W 1959   5.555   0.154   7.125
  963W        W 1960   0.784   5.443   0.582
  964W        W 1961   4.456   7.403   5.796
  965W        W 1962   3.083   2.675   4.172
  966W        W 1963   4.675   2.752   1.870
  967W        W 1964   4.158   4.184   3.586
  968W        W 1965   2.269   6.175   1.319
  969W        W 1966   0.625   5.859   1.817
  970W        W 1967   1.819   5.613   0.564
  971W        W 1968   0.003   4.041   0.383
  972W        W 1969   2.220   4.757   6.135
  973W        W 1970   6.730   3.597   1.028
  974W        W 1971   7.406   6.131   6.248
  975W        W 1972   7.332   7.423   1.373
  976W        W 1973   4.591   4.252   3.345
  977W        W 1974   4.236   3.011   7.500
  978W        W 1975   1.180   6.272   4.569
  979W        W 1976   6.335   6.960   4.023
  980W        W 1977   3.501   0.218   0.224
  981W        W 1978   3.316   5.053   5.264
  982W        W 1979   7.113   1.939   1.921
  983W        W 1980   7.415   4.354   2.392
  984W        W 1981   2.056   1.011   2.319
  985W        W 1982   6.751   7.606   6.813
  986W        W 1983   3.062   5.826   2.898
  987W        W 1984   6.567   3.433   6.491
  988W        W 1985   1.908   5.662   4.953
  989W        W 1986   4.602   6.999   0.081
  990W        W 1987   4.303   6.390   2.982
  991W        W 1988   5.422   4.965   0.270
  992W        W 1989   6.280   6.292   7.885
  993W        W 1990   0.941   6.014   0.318
  994W        W 1991   0.843   4.714   3.298
  995W        W 1992   1.900   0.251   4.031
  996W        W 1993   5.108   6.126   4.576
  997W        W 1994   5.444   2.473   2.541
  998W        W 1995   5.227   4.048   0.225
  999W        W 1996   5.713   1.745   1.961
 1000W        W 1997   2.799   3.654   3.432
 1001W        W 1998   5.449   3.091   3.041
 1002W        W 1999   6.268   4.709   2.901
 1003W        W 2000   5.641   5.643   3.982
 1004W        W 2001   4.843   4.339   0.739
 1005W        W 2002   6.335   5.614   1.370
 1006W        W 2003   0.195   1.231   0.158
 1007W        W 2004   7.146   0.763   5.058
 1008W        W 2005   7.476   2.066   4.116
 1009W        W 2006   3.928   6.100   6.005
 1010W        W 2007   2.580   4.977   6.336
 1011W        W 2008   1.569   5.996   5.173
 1012W        W 2009   4.949   4.583   3.597
 1013W        W 2010   1.693   3.645   5.545
 1014W        W 2011   1.664   3.058   4.620
 1015W        W 2012   6.564   2.752   0.738
 1016W        W 2013   4.830   4.724   1.087
 1017W        W 2014   3.505   2.500   0.225
 1018W        W 2015   5.833   5.746   1.482
 1019W        W 2016   7.628   3.244   1.543
 1020W        W 2017   5.518   2.090   3.465
 1021W        W 2018   2.215   3.016   6.558
 1022W        W 2019   7.726   2.999   7.922
 1023W        W 2020   6.981   4.385   5.350
 1024W        W 2021   1.697   7.012   2.333
 1025W        W 2022   0.296   1.363   4.181
 1026W        W 2023   0.897   3.350   1.464
 1027W        W 2024   3.471   5.128   2.408
 1028W        W 2025   3.724   1.509   3.200
 1029W        W 2026   1.622   3.374   2.600
 1030W        W 2027   4.354   7.543   3.313
 1031W        W 2028   7.034   5.787   3.834
 1032W        W 2029   3.507   3.142   5.294
 1033W        W 2030   5.145   6.054   6.881
 1034W        W 2031   3.004   0.352   0.136
 1035W        W 2032   4.364   0.457   7.512
 1036W        W 2033   0.452   4.205   7.641
 1037W        W 2034   1.032   4.046   6.922
 1038W        W 2035   4.476   0.410   1.428
 1039W        W 2036   2.368   6.709   7.733
 1040W        W 2037   5.465   5.845   0.242
 1041W        W 2038   3.378   4.676   0.238
 1042W        W 2039   3.341   5.214   1.690
 1043W        W 2040   5.398   2.125   6.481
 1044W        W 2041   2.826   6.337   7.059
 1045W        W 2042   4.891   6.400   5.183
 1046W        W 2043   0.909   2.548   5.958
 1047W        W 2044   1.821   0.355   0.484
 1048W        W 2045   0.775   7.207   6.385
 1049W        W 2046   1.403   1.589   1.921
 1050W        W 2047   1.342   1.666   2.598
 1051W        W 2048   2.191   2.901   7.545
 1052W        W 2049   5.338   1.827   0.456
 1053W        W 2050   2.874   4.892   1.459
 1054W        W 2051   1.834   0.195   2.522
 1055W        W 2052   6.239   7.300   5.351
 1056W        W 2053   4.969   4.629   2.548
 1057W        W 2054   0.777   3.832   3.508
 1058W        W 2055   5.149   6.670   6.909
 1059W        W 2056   6.085   1.512   6.300
 1060W        W 2057   7.465   2.577   3.265
 1061W        W 2058   6.087   1.336   3.709
 1062W        W 2059   1.638   2.544   6.727
 1063W        W 2060   0.385   4.034   4.797
 1064W        W 2061   6.067   3.769   3.175
 1065W        W 2062   0.242   4.853   3.310
 1066W        W 2063   3.665   3.092   5.783
 1067W        W 2064   5.309   6.489   1.442
 1068W        W 2065   3.938   1.744   6.996
 1069W        W 2066   0.524   3.550   3.870
 1070W        W 2067   0.786   3.743   2.892
 1071W        W 2068   4.999   6.683   5.574
 1072W        W 2069   1.681   4.256   4.748
 1073W        W 2070   5.440   4.797   3.544
 1074W        W 2071   4.939   7.991   5.248
 1075W        W 2072   1.130   4.601   0.022
 1076W        W 2073   4.667   0.450   5.005
 1077W        W 2074   1.912   7.623   0.138
 1078W        W 2075   5.143   1.691   1.760
 1079W        W 2076   6.608   3.807   1.743
 1080W        W 2077   3.360   2.001   4.042
 1081W        W 2078   1.248   6.889   3.215
 1082W        W 2079   0.386   0.180   0.625
 1083W        W 2080   4.866   2.164   0.978
 1084W        W 2081   7.818   0.030   0.051
 1085W        W 2082   1.154   2.878   1.361
 1086W        W 2083   0.217   5.175   1.127
 1087W        W 2084   2.460   5.193   5.213
 1088W        W 2085   3.241   7.779   2.356
 1089W        W 2086   6.462   0.782   4.379
 1090W        W 2087   5.998   1.762   4.130
 1091W        W 2088   1.353   3.223   6.577
 1092W        W 2089   2.632   3.609   0.299
 1093W        W 2090   6.247   1.885   2.814
 1094W        W 2091   0.791   3.735   5.499
 1095W        W 2092   1.278   1.701   4.585
 1096W        W 2093   6.061   1.630   1.049
 1097W        W 2094   7.505   0.577   6.032
 1098W        W 2095   2.201   1.277   5.682
 1099W        W 2096   7.471   0.804   3.433
 1100W        W 2097   4.863   6.071   2.328
 1101W        W 2098   0.007   7.473   7.485
 1102W        W 2099   0.304   6.595   0.094
 1103W        W 2100   6.980   3.724   5.751
 1104W        W 2101   7.267   0.286   3.432
 1105W        W 2102   0.667   1.209   3.347
 1106W        W 2103   6.712   4.690   7.639
 1107W        W 2104   1.447   1.939   2.961
 1108W        W 2105   3.201   5.503   0.365
 1109W        W 2106   3.084   1.142   1.986
 1110W        W 2107   5.634   6.317   5.254
 1111W        W 2108   0.985   5.964   3.333
 1112W        W 2109   6.265   4.431   5.015
 1113W        W 2110   3.817   0.298   5.391
 1114W        W 2111   6.121   3.427   7.186
 1115W        W 2112   4.966   3.303   3.037
 1116W        W 2113   7.453   2.320   5.309
 1117W        W 2114   7.640   7.552   7.172
 1118W        W 2115   0.618   6.358   1.648
 1119W        W 2116   5.950   2.835   4.406
 1120W        W 2117   3.496   0.941   7.629
 1121W        W 2118   6.605   4.633   3.981
 1122W        W 2119   2.097   5.571   7.236
 1123W        W 2120   3.938   4.747   0.571
 1124W        W 2121   3.676   6.414   3.541
 1125W        W 2122   0.629   1.559   1.554
 1126W        W 2123   5.639   1.258   2.512
 1127W        W 2124   6.580   2.519   7.484
 1128W        W 2125   3.073   6.453   2.278
 1129W        W 2126   1.672   7.002   0.107
 1130W        W 2127   4.136   5.789   0.177
 1131W        W 2128   6.582   2.142   0.206
 1132W        W 2129   7.066   7.436   4.566
 1133W        W 2130   7.386   2.328   6.003
 1134W        W 2131   4.897   3.388   6.199
 1135W        W 2132   3.152   1.405   6.034
 1136W        W 2133   4.753   6.501   4.682
 1137W        W 2134   7.787   1.222   1.973
 1138W        W 2135   0.973   2.798   0.005
 1139W        W 2136   2.719   3.061   6.067
 1140W        W 2137   0.311   2.970   6.510
 1141W        W 2138   4.207   2.560   7.067
 1142W        W 2139   3.163   6.994   1.347
 1143W        W 2140   3.157   2.765   4.711
 1144W        W 2141   7.860   4.910   5.399
 1145W        W 2142   7.415   4.168   0.704
 1146W        W 2143   6.256   1.267   4.194
 1147W        W 2144   3.739   5.514   1.710
 1148W        W 2145   2.640   2.948   4.716
 1149W        W 2146   3.330   4.647   6.497
 1150W        W 2147   2.232   2.089   3.938
 1151W        W 2148   5.287   2.289   7.423
 1152W        W 2149   5.105   5.474   6.177
 1153W        W 2150   7.078   6.166   5.351
 1154W        W 2151   6.122   1.669   0.272
 1155W        W 2152   0.562   6.696   4.224
 1156W        W 2153   7.264   2.924   4.477
 1157W        W 2154   4.618   4.853   5.774
 1158W        W 2155   5.446   0.715   3.238
 1159W        W 2156   1.736   7.025   0.934
 1160W        W 2157   4.487   5.108   6.605
 1161W        W 2158   6.668   2.283   5.422
 1162W        W 2159   3.832   3.164   3.826
 1163W        W 2160   1.718   5.164   5.019
 1164W        W 2161   5.900   4.294   2.348
 1165W        W 2162   4.167   7.871   5.845
 1166W        W 2163   0.744   0.647   3.507
 1167W        W 2164   1.061   2.166   6.440
 1168W        W 2165   1.456   6.088   6.783
 1169W        W 2166   0.721   5.777   4.064
 1170W        W 2167   6.049   4.942   5.816
 1171W        W 2168   4.093   7.270   4.077
 1172W        W 2169   4.486   1.512   3.592
 1173W        W 2170   6.821   2.684   4.519
 1174W        W 2171   7.591   1.988   3.057
 1175W        W 2172   0.176   4.104   4.233
 1176W        W 2173   3.102   2.998   5.602
 1177W        W 2174   2.564   0.491   4.434
 1178W        W 2175   6.150   4.255   5.563
 1179W        W 2176   2.932   6.778   4.683
 1180W        W 2177   0.834   4.074   5.082
 1181W        W 2178   1.649   2.257   0.717
 1182W        W 2179   3.816   3.033   2.810
 1183W        W 2180   7.100   3.206   5.790
 1184W        W 2181   7.677   5.164   1.867
 1185W        W 2182   1.498   1.382   4.905
 1186W        W 2183   4.399   2.224   1.137
 1187W        W 2184   1.079   0.800   4.328
 1188W        W 2185   6.991   5.747   0.853
 1189W        W 2186   3.953   0.469   0.623
 1190W        W 2187   7.739   5.277   1.321
 1191W        W 2188   5.560   2.026   4.787
 1192W        W 2189   5.736   6.995   6.161
 1193W        W 2190   0.339   7.377   1.948
 1194W        W 2191   1.817   7.156   7.400
 1195W        W 2192   1.042   6.311   7.583
 1196W        W 2193   1.148   4.542   6.912
 1197W        W 2194   6.086   5.191   1.483
 1198W        W 2195   4.388   0.124   0.498
 1199W        W 2196   4.201   3.828   2.580
 1200W        W 2197   6.918   4.515   6.020
 1201W        W 2198   6.321   3.066   5.216
 1202W        W 2199   7.212   6.156   2.290
 1203W        W 2200   4.420   4.149   5.220
 1204W        W 2201   6.741   2.980   6.628
 1205W        W 2202   2.993   6.432   0.665
 1206W        W 2203   5.777   5.716   7.713
 1207W        W 2204   1.153   2.669   0.473
 1208W        W 2205   6.464   2.630   6.372
 1209W        W 2206   1.910   7.212   0.497
 1210W        W 2207   2.532   6.671   0.820
 1211W        W 2208   4.139   7.036   1.675
 1212W        W 2209   6.230   5.550   1.949
 1213W        W 2210   2.492   6.273   2.169
 1214W        W 2211   2.663   7.517   0.802
 1215W        W 2212   3.737   2.660   6.034
 1216W        W 2213   6.420   2.814   4.139
 1217W        W 2214   0.056   0.427   2.832
 1218W        W 2215   1.117   7.647   6.069
 1219W        W 2216   6.219   5.873   6.812
 1220W        W 2217   2.025   3.961   7.673
 1221W        W 2218   2.661   4.839   5.864
 1222W        W 2219   5.243   3.528   3.408
 1223W        W 2220   3.781   0.367   1.725
 1224W        W 2221   4.343   4.692   5.384
 1225W        W 2222   7.508   0.166   2.258
 1226W        W 2223   5.340   6.059   2.541
 1227W        W 2224   4.344   3.901   3.061
 1228W        W 2225   1.347   6.122   2.686
 1229W        W 2226   2.943   0.783   2.344
 1230W        W 2227   4.079   6.023   4.351
 1231W        W 2228   0.232   6.549   0.771
 1232W        W 2229   4.496   2.126   2.183
 1233W        W 2230   4.290   5.304   1.647
 1234W        W 2231   5.587   2.360   1.548
 1235W        W 2232   3.663   0.579   3.519
 1236W        W 2233   3.412   2.518   6.484
 1237W        W 2234   6.351   1.034   2.079
 1238W        W 2235   0.347   5.778   5.098
 1239W        W 2236   4.602   2.448   0.681
 1240W        W 2237   0.176   3.893   3.716
 1241W        W 2238   4.649   1.885   4.478
 1242W        W 2239   6.861   1.993   2.479
 1243W        W 2240   6.455   5.133   2.675
 1244W        W 2241   3.810   5.574   0.861
 1245W        W 2242   5.481   0.448   7.577
 1246W        W 2243   4.876   1.732   6.991
 1247W        W 2244   0.850   0.708   2.890
 1248W        W 2245   0.172   5.419   6.260
 1249W        W 2246   1.607   3.627   7.575
 1250W        W 2247   0.447   3.259   0.140
 1251W        W 2248   2.023   4.775   4.566
 1252W        W 2249   3.927   1.219   1.525
 1253W        W 2250   5.914   2.344   3.234
 1254W        W 2251   1.936   7.458   1.801
 1255W        W 2252   2.191   5.884   0.891
 1256W        W 2253   2.946   3.010   7.081
 1257W        W 2254   0.403   0.677   2.529
 1258W        W 2255   3.607   4.399   5.713
 1259W        W 2256   6.651   4.122   5.875
 1260W        W 2257   3.650   1.181   5.817
 1261W        W 2258   6.839   0.103   0.252
 1262W        W 2259   3.229   2.330   2.286
 1263W        W 2260   1.304   2.260   7.257
 1264W        W 2261   6.057   2.553   2.331
 1265W        W 2262   6.922   4.117   1.982
 1266W        W 2263   6.060   5.321   2.393
 1267W        W 2264   3.696   3.430   6.748
 1268W        W 2265   6.034   3.740   0.950
 1269W        W 2266   3.728   0.913   6.345
 1270W        W 2267   5.217   4.981   5.881
 1271W        W 2268   0.594   0.090   6.022
 1272W        W 2269   5.230   5.305   1.880
 1273W        W 2270   3.032   1.755   2.519
 1274W        W 2271   4.184   5.626   5.296
 1275W        W 2272   2.294   6.490   1.731
 1276W        W 2273   5.000   2.260   2.551
 1277W        W 2274   5.754   4.647   7.351
 1278W        W 2275   4.997   6.915   4.465
 1279W        W 2276   3.596   2.501   0.732
 1280W        W 2277   0.936   4.322   6.089
 1281W        W 2278   0.833   7.622   6.778
 1282W        W 2279   4.062   5.318   4.870
 1283W        W 2280   2.040   0.260   5.024
 1284W        W 2281   1.014   0.208   4.188
 1285W        W 2282   0.862   6.538   0.251
 1286W        W 2283   5.894   7.172   3.957
 1287W        W 2284   1.124   3.015   2.735
 1288W        W 2285   3.539   4.136   4.956
 1289W        W 2286   1.384   3.156   1.782
 1290W        W 2287   3.578   1.992   7.916
 1291W        W 2288   0.285   5.537   3.614
 1292W        W 2289   0.325   0.641   1.620
 1293W        W 2290   4.457   7.728   5.363
 1294W        W 2291   1.853   7.749   2.223
 1295W        W 2292   5.461   4.541   2.447
 1296W        W 2293   1.550   0.760   5.615
 1297W        W 2294   0.517   7.623   7.632
 1298W        W 2295   3.356   7.307   0.143
 1299W        W 2296   5.951   7.552   2.617
 1300W        W 2297   4.165   0.077   3.431
 1301W        W 2298   0.764   5.254   4.025
 1302W        W 2299   7.025   4.993   6.147
 1303W        W 2300   2.686   1.844   5.857
 1304W        W 2301   1.355   0.207   2.311
 1305W        W 2302   4.635   5.394   4.002
 1306W        W 2303   4.323   6.866   3.803
 1307W        W 2304   2.815   2.610   7.300
 1308W        W 2305   6.963   0.777   3.486
 1309W        W 2306   6.482   3.851   2.716
 1310W        W 2307   3.985   7.425   0.898
 1311W        W 2308   5.171   7.381   2.880
 1312W        W 2309   0.061   1.487   5.192
 1313W        W 2310   2.811   2.637   5.717
 1314W        W 2311   5.301   0.539   0.683
 1315W        W 2312   0.429   5.027   5.229
 1316W        W 2313   7.601   7.132   5.439
 1317W        W 2314   1.914   4.956   0.181
 1318W        W 2315   5.814   0.605   7.206
 1319W        W 2316   2.414   3.338   3.550
 1320W        W 2317   5.515   3.154   0.293
 1321W        W 2318   5.947   0.852   4.478
 1322W        W 2319   7.072   0.464   5.924
 1323W        W 2320   7.451   4.429   0.239
 1324W        W 2321   5.108   5.571   3.873
 1325W        W 2322   6.119   4.913   3.718
 1326W        W 2323   6.069   3.507   6.110
 1327W        W 2324   7.708   1.714   7.231
 1328W        W 2325   1.076   5.248   4.481
 1329W        W 2326   4.952   5.119   0.358
 1330W        W 2327   3.882   7.454   1.443
 1331W        W 2328   7.136   7.857   5.127
 1332W        W 2329   1.508   2.550   1.237
 1333W        W 2330   3.943   0.452   6.544
 1334W        W 2331   7.671   4.616   1.903
 1335W        W 2332   4.984   0.197   5.627
 1336W        W 2333   2.006   2.364   7.588
 1337W        W 2334   1.266   3.859   5.422
 1338W        W 2335   4.074   1.852   1.220
 1339W        W 2336   2.767   6.856   2.116
 1340W        W 2337   2.694   1.833   6.786
 1341W        W 2338   1.433   6.839   5.911
 1342W        W 2339   0.937   6.741   7.292
 1343W        W 2340   3.873   2.918   0.695
 1344W        W 2341   4.633   1.684   6.480
 1345W        W 2342   3.132   5.419   7.093
 1346W        W 2343   5.136   5.654   2.250
 1347W        W 2344   5.669   0.753   6.255
 1348W        W 2345   2.224   1.472   2.370
 1349W        W 2346   3.789   6.089   2.538
 1350W        W 2347   3.637   6.393   4.251
 1351W        W 2348   4.946   7.098   3.972
 1352W        W 2349   2.105   6.729   6.482
 1353W        W 2350   0.188   7.660   5.751
 1354W        W 2351   6.740   4.741   2.733
 1355W        W 2352   2.082   3.323   4.749
 1356W        W 2353   5.952   6.594   1.539
 1357W        W 2354   1.833   4.741   7.357
 1358W        W 2355   3.296   2.774   7.354
 1359W        W 2356   2.922   5.931   5.199
 1360W        W 2357   1.617   6.714   2.744
 1361W        W 2358   5.128   4.140   2.311
 1362W        W 2359   3.305   5.931   0.083
 1363W        W 2360   4.899   1.989   5.242
 1364W        W 2361   5.590   6.386   6.761
 1365W        W 2362   0.718   1.108   1.178
 1366W        W 2363   5.579   3.161   7.796
 1367W        W 2364   4.543   5.476   0.451
 1368W        W 2365   1.112   3.647   0.840
 1369W        W 2366   6.331   0.780   2.972
 1370W        W 2367   4.908   4.412   5.364
 1371W        W 2368   3.714   2.040   1.465
 1372W        W 2369   7.237   5.494   2.855
 1373W        W 2370   1.778   6.030   1.271
 1374W        W 2371   1.116   5.761   4.478
 1375W        W 2372   7.688   3.141   4.289
 1376W        W 2373   3.902   6.224   5.291
 1377W        W 2374   7.548   7.130   7.445
 1378W        W 2375   4.078   6.811   1.228
 1379W        W 2376   7.313   4.817   7.484
 1380W        W 2377   7.388   6.661   7.393
 1381W        W 2378   0.066   4.405   4.621
 1382W        W 2379   0.529   5.970   3.629
 1383W        W 2380   1.082   5.121   3.580
 1384W        W 2381   6.769   6.635   7.704
 1385W        W 2382   1.351   0.689   0.338
 1386W        W 2383   0.785   4.239   2.560
 1387W        W 2384   5.822   4.122   0.417
 1388W        W 2385   3.554   3.598   7.563
 1389W        W 2386   0.559   3.992   6.820
 1390W        W 2387   1.324   3.160   2.276
 1391W        W 2388   1.894   1.102   7.970
 1392W        W 2389   2.800   4.596   3.966
 1393W        W 2390   4.534   1.931   3.184
 1394W        W 2391   1.318   0.987   7.823
 1395W        W 2392   5.751   4.630   2.029
 1396W        W 2393   2.358   2.337   7.234
 1397W        W 2394   5.462   7.445   5.905
 1398W        W 2395   5.394   7.332   3.924
 1399W        W 2396   1.932   6.657   7.394
 1400W        W 2397   5.947   3.208   1.205
 1401W        W 2398   3.313   3.006   6.108
 1402W        W 2399   7.018   4.293   7.774
 1403W        W 2400   6.251   4.531   2.084
 1404W        W 2401   0.181   0.313   7.472
 1405W        W 2402   4.061   5.772   6.440
 1406W        W 2403   7.788   3.530   1.096
 1407W        W 2404   1.272   7.091   6.285
 1408W        W 2405   6.063   2.971   2.700
 1409W        W 2406   6.957   3.770   7.577
 1410W        W 2407   4.540   2.522   6.452
 1411W        W 2408   7.183   0.281   0.651
 1412W        W 2409   7.941   6.739   7.309
 1413W        W 2410   5.642   1.206   5.954
 1414W        W 2411   3.708   0.045   6.418
 1415W        W 2412   5.034   1.272   4.762
 1416W        W 2413   0.590   4.329   2.097
 1417W        W 2414   1.725   4.283   6.180
 1418W        W 2415   4.089   2.308   3.037
 1419W        W 2416   3.429   0.065   4.510
 1420W        W 2417   6.949   0.172   3.822
 1421W        W 2418   1.038   3.576   7.433
 1422W        W 2419   6.126   6.337   3.747
 1423W        W 2420   6.615   3.402   5.975
 1424W        W 2421   2.175   1.295   1.874
 1425W        W 2422   1.999   3.934   4.185
 1426W        W 2423   3.957   7.669   5.072
 1427W        W 2424   5.235   1.803   2.756
 1428W        W 2425   1.685   1.293   0.421
 1429W        W 2426   3.094   5.313   2.624
 1430W        W 2427   7.130   4.711   6.527
 1431W        W 2428   0.545   6.512   7.548
 1432W        W 2429   0.439   1.282   2.433
 1433W        W 2430   0.256   3.930   1.979
 1434W        W 2431   0.659   7.191   4.113
 1435W        W 2432   6.040   4.928   4.276
 1436W        W 2433   1.077   4.228   4.581
 1437W        W 2434   3.342   0.838   6.064
 1438W        W 2435   5.847   3.300   0.705
 1439W        W 2436   3.880   1.009   3.305
 1440W        W 2437   3.349   0.740   2.617
 1441W        W 2438   5.279   3.992   3.233
 1442W        W 2439   1.204   1.112   5.672
 1443W        W 2440   4.636   3.366   0.664
 1444W        W 2441   6.972   4.184   3.358
 1445W        W 2442   1.757   5.758   2.386
 1446W        W 2443   4.545   0.159   7.952
 1447W        W 2444   2.785   0.380   0.604
 1448W        W 2445   7.453   7.326   6.059
 1449W        W 2446   7.622   7.395   6.668
 1450W        W 2447   4.467   7.370   2.231
 1451W        W 2448   5.881   6.534   6.110
 1452W        W 2449   4.576   5.573   6.286
 1453W        W 2450   4.989   5.452   0.756
 1454W        W 2451   4.415   1.467   7.041
 1455W        W 2452   7.622   2.966   7.407
 1456W        W 2453   0.696   0.010   4.939
 1457W        W 2454   5.107   6.191   5.599
 1458W        W 2455   2.370   4.307   4.069
 1459W        W 2456   3.922   7.605   7.838
 1460W        W 2457   2.765   6.116   0.203
 1461W        W 2458   6.542   2.731   2.102
 1462W        W 2459   4.776   6.357   6.772
 1463W        W 2460   5.685   5.510   5.672
 1464W        W 2461   6.651   7.169   3.600
 1465W        W 2462   7.032   1.800   7.258
 1466W        W 2463   7.466   0.457   7.432
 1467W        W 2464   1.287   5.443   7.476
 1468W        W 2465   2.976   2.602   0.038
 1469W        W 2466   5.096   0.342   3.456
 1470W        W 2467   7.414   3.625   6.082
 1471W        W 2468   7.444   6.258   6.994
 1472W        W 2469   0.981   1.980   6.889
 1473W        W 2470   1.698   6.040   0.745
 1474W        W 2471   4.291   7.260   5.202
 1475W        W 2472   1.832   1.599   6.802
 1476W        W 2473   1.571   0.159   3.661
 1477W        W 2474   2.094   1.166   2.820
 1478W        W 2475   4.369   0.714   2.394
 1479W        W 2476   1.978   2.923   3.614
 1480W        W 2477   4.646   5.944   7.121
 1481W        W 2478   2.184   7.558   7.565
 1482W        W 2479   7.515   7.059   1.667
 1483W        W 2480   7.772   5.007   2.868
 1484W        W 2481   0.832   7.449   1.820
 1485W        W 2482   1.489   3.457   3.598
 1486W        W 2483   7.830   0.337   1.667
 1487W        W 2484   4.464   7.476   4.318
 1488W        W 2485   7.209   1.608   1.007
 1489W        W 2486   7.819   2.425   0.823
 1490W        W 2487   7.684   3.770   1.542
 1491W        W 2488   1.791   1.401   2.178
 1492W        W 2489   7.616   1.182   4.268
 1493W        W 2490   4.021   1.985   0.088
 1494W        W 2491   4.175   5.704   2.109
 1495W        W 2492   3.777   5.363   5.362
 1496W        W 2493   0.557   0.767   0.837
 1497W        W 2494   7.396   2.144   2.285
 1498W        W 2495   2.719   4.465   6.255
 1499W        W 2496   3.286   1.367   7.418
 1500W        W 2497   6.292   1.655   3.345
 1501W        W 2498   0.073   7.311   2.727
 1502W        W 2499   4.249   5.123   3.707
 1503W        W 2500   6.108   0.476   2.685
 1504W        W 2501   5.061   3.422   7.793
 1505W        W 2502   5.746   0.169   2.180
 1506W        W 2503   6.417   4.384   7.015
 1507W        W 2504   3.098   0.309   1.107
 1508W        W 2505   0.532   6.204   3.129
 1509W        W 2506   2.766   0.317   2.755
 1510W        W 2507   3.502   4.934   4.472
 1511W        W 2508   3.017   4.769   2.442
 1512W        W 2509   6.702   1.587   1.012
 1513W        W 2510   7.654   7.606   4.340
 1514W        W 2511   4.595   0.268   3.168
 1515W        W 2512   6.307   0.071   1.782
 1516W        W 2513   5.339   2.579   3.728
 1517W        W 2514   3.428   5.126   6.378
 1518W        W 2515   7.373   3.802   3.851
 1519W        W 2516   3.151   2.240   0.425
 1520W        W 2517   2.520   0.357   6.877
 1521W        W 2518   7.254   2.918   6.584
 1522W        W 2519   2.553   1.263   1.173
 1523W        W 2520   0.615   4.878   2.424
 1524W        W 2521   1.996   0.039   3.378
 1525W        W 2522   7.485   2.874   6.173
 1526W        W 2523   7.608   5.585   6.318
 1527W        W 2524   0.213   6.878   1.741
 1528W        W 2525   6.753   7.597   4.938
 1529W        W 2526   3.436   4.257   2.072
 1530W        W 2527   7.335   1.510   1.843
 1531W        W 2528   0.624   7.690   4.069
 1532W        W 2529   1.189   5.528   3.936
 1533W        W 2530   3.193   1.760   0.687
 1534W        W 2531   5.085   2.746   4.577
 1535W        W 2532   0.163   4.900   4.767
 1536W        W 2533   1.390   3.206   7.456
 1537W        W 2534   5.150   3.670   7.039
 1538W        W 2535   5.962   7.482   3.126
 1539W        W 2536   1.789   5.157   2.912
 1540W        W 2537   7.661   4.491   5.009
 1541W        W 2538   2.531   1.020   2.076
 1542W        W 2539   3.016   3.384   3.020
 1543W        W 2540   5.513   6.056   4.835
 1544W        W 2541   5.463   1.985   5.925
 1545W        W 2542   0.329   1.328   6.700
 1546W        W 2543   1.992   2.594   6.242
 1547W        W 2544   0.177   2.228   6.485
 1548W        W 2545   4.955   7.737   2.542
 1549W        W 2546   4.453   4.650   6.316
 1550W        W 2547   3.162   2.630   5.248
 1551W        W 2548   5.435   6.421   5.905
 1552W        W 2549   6.318   4.527   1.141
 1553W        W 2550   5.505   4.971   7.689
 1554W        W 2551   5.537   4.004   1.517
 1555W        W 2552   6.639   4.827   0.731
 1556W        W 2553   1.803   5.346   5.932
 1557W        W 2554   1.989   5.266   3.367
 1558W        W 2555   4.133   0.137   6.210
 1559W        W 2556   1.441   0.409   2.745
 1560W        W 2557   6.397   3.710   5.643
 1561W        W 2558   7.056   0.768   6.982
 1562W        W 2559   7.061   0.525   2.126
 1563W        W 2560   0.576   4.406   7.164
 1564W        W 2561   1.734   0.332   7.420
 1565W        W 2562   2.660   5.098   7.919
 1566W        W 2563   1.878   5.033   5.482
 1567W        W 2564   5.772   2.401   0.733
 1568W        W 2565   2.671   1.960   6.346
 1569W        W 2566   1.765   6.611   2.013
 1570W        W 2567   2.391   3.822   4.472
 1571W        W 2568   5.814   5.830   2.740
 1572W        W 2569   0.692   1.024   3.893
 1573W        W 2570   7.767   7.646   2.235
 1574W        W 2571   4.076   4.360   3.129
 1575W        W 2572   3.205   0.791   3.265
 1576W        W 2573   1.990   2.427   0.388
 1577W        W 2574   2.868   5.553   4.098
 1578W        W 2575   0.980   5.608   5.702
 1579W        W 2576   0.274   4.709   0.782
 1580W        W 2577   2.491   4.948   4.695
 1581W        W 2578   2.467   0.548   1.911
 1582W        W 2579   2.116   7.090   7.854
 1583W        W 2580   2.000   6.580   3.082
 1584W        W 2581   1.486   6.327   1.615
 1585W        W 2582   6.531   4.885   2.258
 1586W        W 2583   2.016   0.649   2.763
 1587W        W 2584   2.046   1.167   1.366
 1588W        W 2585   6.257   0.049   7.804
 1589W        W 2586   2.769   2.332   3.953
 1590W        W 2587   2.647   5.507   6.980
 1591W        W 2588   5.881   5.785   2.260
 1592W        W 2589   2.657   2.848   4.251
 1593W        W 2590   7.808   6.537   3.566
 1594W        W 2591   3.424   6.925   3.613
 1595W        W 2592   0.483   0.297   6.555
 1596W        W 2593   1.912   1.926   2.155
 1597W        W 2594   3.943   1.522   7.879
 1598W        W 2595   4.429   4.711   7.357
 1599W        W 2596   1.396   6.712   7.553
 1600W        W 2597   4.099   3.364   5.994
 1601W        W 2598   7.494   1.191   0.984
 1602W        W 2599   3.853   4.818   0.070
 1603W        W 2600   5.960   1.198   4.977
 1604W        W 2601   5.033   5.651   0.213
 1605W        W 2602   5.166   3.297   2.554
 1606W        W 2603   6.900   2.318   0.600
 1607W        W 2604   1.111   2.459   6.875
 1608W        W 2605   0.302   0.807   6.721
 1609W        W 2606   4.177   4.628   3.946
 1610W        W 2607   5.798   2.784   3.902
 1611W        W 2608   7.073   4.583   3.715
 1612W        W 2609   7.179   3.464   7.307
 1613W        W 2610   4.388   4.202   7.528
 1614W        W 2611   1.249   4.190   0.839
 1615W        W 2612   4.097   2.644   2.627
 1616W        W 2613   4.638   6.353   5.644
 1617W        W 2614   3.580   3.200   1.064
 1618W        W 2615   2.526   3.282   7.359
 1619W        W 2616   3.843   0.785   5.595
 1620W        W 2617   1.962   0.517   3.593
 1621W        W 2618   2.521   4.185   0.344
 1622W        W 2619   3.114   6.868   0.871
 1623W        W 2620   1.413   2.944   7.000
 1624W        W 2621   5.574   2.616   4.746
 1625W        W 2622   3.474   0.799   4.361
 1626W        W 2623   0.448   0.638   6.210
 1627W        W 2624   1.566   1.004   6.819
 1628W        W 2625   2.584   5.970   4.201
 1629W        W 2626   0.985   4.245   5.589
 1630W        W 2627   7.237   3.157   3.177
 1631W        W 2628   1.110   1.259   3.675
 1632W        W 2629   5.261   0.686   1.193
 1633W        W 2630   5.874   0.817   3.559
 1634W        W 2631   1.037   0.452   5.780
 1635W        W 2632   6.299   6.001   5.856
 1636W        W 2633   1.074   0.291   3.689
 1637W        W 2634   2.042   2.409   3.534
 1638W        W 2635   4.395   2.448   3.909
 1639W        W 2636   2.566   1.447   6.183
 1640W        W 2637   4.419   0.971   7.169
 1641W        W 2638   2.848   5.053   4.266
 1642W        W 2639   5.473   6.391   4.374
 1643W        W 2640   6.034   5.371   2.947
 1644W        W 2641   3.674   5.952   4.055
 1645W        W 2642   1.230   7.334   0.843
 1646W        W 2643   1.219   1.645   0.593
 1647W        W 2644   2.223   1.625   6.504
 1648W        W 2645   7.706   2.435   2.812
 1649W        W 2646   0.890   2.120   4.923
 1650W        W 2647   3.406   2.905   0.505
 1651W        W 2648   7.425   4.879   2.271
 1652W        W 2649   5.567   7.750   2.973
 1653W        W 2650   4.133   5.179   7.571
 1654W        W 2651   2.783   3.019   2.816
 1655W        W 2652   6.384   7.461   3.976
 1656W        W 2653   4.255   5.130   6.119
 1657W        W 2654   7.152   4.350   2.928
 1658W        W 2655   7.917   1.335   0.567
 1659W        W 2656   2.199   1.995   6.868
 1660W        W 2657   0.589   3.749   2.325
 1661W        W 2658   5.467   4.137   5.269
 1662W        W 2659   7.769   0.007   0.609
 1663W        W 2660   4.320   7.270   0.451
 1664W        W 2661   5.418   6.375   7.265
 1665W        W 2662   4.813   4.765   3.028
 1666W        W 2663   2.061   6.437   0.850
 1667W        W 2664   2.863   5.175   5.543
 1668W        W 2665   0.153   2.682   0.156
 1669W        W 2666   2.021   3.080   1.712
 1670W        W 2667   6.124   0.950   6.361
 1671W        W 2668   7.318   7.049   6.474
 1672W        W 2669   0.326   0.362   5.032
 1673W        W 2670   4.045   6.518   2.556
 1674W        W 2671   0.726   0.133   1.450
 1675W        W 2672   5.090   2.202   1.444
 1676W        W 2673   4.726   6.268   3.282
 1677W        W 2674   2.015   3.447   4.292
 1678W        W 2675   0.942   0.045   7.397
 1679W        W 2676   1.862   7.796   7.231
 1680W        W 2677   4.214   6.426   0.818
 1681W        W 2678   0.938   2.908   6.753
 1682W        W 2679   3.070   3.944   5.142
 1683W        W 2680   4.512   0.027   1.725
 1684W        W 2681   0.766   6.490   4.750
 1685W        W 2682   6.610   2.008   7.665
 1686W        W 2683   5.943   7.490   2.121
 1687W        W 2684   3.714   6.869   0.295
 1688W        W 2685   4.883   0.308   0.446
 1689W        W 2686   2.308   3.787   7.320
 1690W        W 2687   2.179   4.201   5.958
 1691W        W 2688   4.270   4.141   6.190
 1692W        W 2689   4.616   1.846   1.382
 1693W        W 2690   2.951   1.450   3.834
 1694W        W 2691   1.573   0.384   4.582
 1695W        W 2692   1.293   4.122   1.702
 1696W        W 2693   1.364   0.711   1.909
 1697W        W 2694   0.721   5.963   5.409
 1698W        W 2695   0.454   0.381   2.065
 1699W        W 2696   2.170   4.913   3.719
 1700W        W 2697   5.205   3.388   0.588
 1701W        W 2698   4.296   3.258   4.496
 1702W        W 2699   3.318   1.371   1.550
 1703W        W 2700   2.112   6.221   4.236
 1704W        W 2701   3.852   3.025   1.763
 1705W        W 2702   6.383   1.554   7.511
 1706W        W 2703   3.671   7.465   4.715
 1707W        W 2704   4.329   4.651   0.978
 1708W        W 2705   0.715   6.990   4.646
 1709W        W 2706   6.255   2.020   4.540
 1710W        W 2707   0.548   2.462   1.569
 1711W        W 2708   4.487   5.047   1.235
 1712W        W 2709   2.172   6.763   0.433
 1713W        W 2710   2.230   5.879   0.403
 1714W        W 2711   1.522   4.102   4.276
 1715W        W 2712   0.988   3.514   5.086
 1716W        W 2713   6.074   4.177   2.809
 1717W        W 2714   4.080   4.237   6.683
 1718W        W 2715   4.929   5.654   6.654
 1719W        W 2716   7.285   7.605   3.871
 1720W        W 2717   6.005   7.506   5.724
 1721W        W 2718   5.631   0.344   2.737
 1722W        W 2719   5.580   7.423   4.392
 1723W        W 2720   5.927   2.244   2.715
 1724W        W 2721   5.787   1.949   5.289
 1725W        W 2722   3.972   0.976   2.861
 1726W        W 2723   7.447   6.249   5.807
 1727W        W 2724   4.717   4.169   0.270
 1728W        W 2725   0.612   7.069   7.615
 1729W        W 2726   2.352   5.459   0.670
 1730W        W 2727   0.932   1.536   7.806
 1731W        W 2728   1.355   7.960   7.427
 1732W        W 2729   5.969   2.937   7.246
 1733W        W 2730   3.856   3.053   6.327
 1734W        W 2731   2.370   6.774   1.299
 1735W        W 2732   4.830   1.667   0.222
 1736W        W 2733   7.390   6.099   1.076
 1737W        W 2734   3.657   1.297   6.978
 1738W        W 2735   4.447   4.458   4.385
 1739W        W 2736   6.983   6.902   2.143
 1740W        W 2737   3.032   2.300   0.911
 1741W        W 2738   3.076   6.488   3.479
 1742W        W 2739   3.312   3.741   7.089
 1743W        W 2740   3.918   2.826   0.213
 1744W        W 2741   4.656   6.791   7.052
 1745W        W 2742   3.806   6.906   2.221
 1746W        W 2743   7.464   4.337   1.413
 1747W        W 2744   1.634   1.361   7.526
 1748W        W 2745   6.781   5.229   7.787
 1749W        W 2746   0.824   4.641   7.502
 1750W        W 2747   0.574   4.829   6.865
 1751W        W 2748   0.809   6.249   6.416
 1752W        W 2749   1.505   1.445   5.910
 1753W        W 2750   2.334   4.612   3.045
 1754W        W 2751   6.421   3.439   1.378
 1755W        W 2752   2.523   3.767   3.990
 1756W        W 2753   5.718   6.797   7.143
 1757W        W 2754   4.141   2.110   4.654
 1758W        W 2755   3.156   3.795   2.145
 1759W        W 2756   7.337   2.077   0.571
 1760W        W 2757   6.321   3.321   0.828
 1761W        W 2758   4.276   5.978   5.638
 1762W        W 2759   1.000   2.528   3.516
 1763W        W 2760   5.976   1.385   1.665
 1764W        W 2761   2.449   1.452   6.961
 1765W        W 2762   6.953   3.751   4.740
 1766W        W 2763   3.286   7.186   5.262
 1767W        W 2764   3.228   1.384   4.333
 1768W        W 2765   1.714   7.015   3.110
 1769W        W 2766   4.507   1.992   3.671
 1770W        W 2767   4.557   0.474   6.112
 1771W        W 2768   2.732   1.795   4.676
 1772W        W 2769   6.096   7.198   1.694
 1773W        W 2770   3.501   5.123   1.203
 1774W        W 2771   0.218   3.341   0.548
 1775W        W 2772   1.149   1.280   0.176
 1776W        W 2773   2.243   6.374   6.846
 1777W        W 2774   3.839   5.018   1.902
 1778W        W 2775   6.737   1.683   5.535
 1779W        W 2776   2.236   1.807   3.504
 1780W        W 2777   3.303   4.917   6.917
 1781W        W 2778   6.465   4.263   1.682
 1782W        W 2779   4.609   3.604   7.491
 1783W        W 2780   0.145   7.014   7.565
 1784W        W 2781   6.803   1.985   6.028
 1785W        W 2782   5.795   7.642   5.286
 1786W        W 2783   6.118   6.671   2.613
 1787W        W 2784   1.076   6.421   0.699
 1788W        W 2785   4.283   4.278   0.635
 1789W        W 2786   3.646   5.627   4.519
 1790W        W 2787   0.041   3.567   4.054
 1791W        W 2788   7.584   1.423   3.453
 1792W        W 2789   5.750   0.903   2.899
 1793W        W 2790   2.062   0.753   5.628
 1794W        W 2791   6.958   3.903   5.267
 1795W        W 2792   1.268   3.395   4.717
 1796W        W 2793   4.620   4.195   1.225
 1797W        W 2794   0.701   2.712   7.109
 1798W        W 2795   3.319   6.605   1.799
 1799W        W 2796   3.081   6.574   6.422
 1800W        W 2797   0.478   5.827   0.451
 1801W        W 2798   5.625   4.828   4.497
 1802W        W 2799   1.239   3.952   2.832
 1803W        W 2800   4.080   1.861   5.925
 1804W        W 2801   6.219   3.480   1.869
 1805W        W 2802   3.275   5.192   5.873
 1806W        W 2803   5.521   7.260   0.821
 1807W        W 2804   6.354   2.104   5.081
 1808W        W 2805   1.212   4.380   1.303
 1809W        W 2806   6.844   4.263   6.637
 1810W        W 2807   1.089   6.075   1.719
 1811W        W 2808   0.263   5.949   2.745
 1812W        W 2809   4.371   5.161   7.115
 1813W        W 2810   2.051   0.698   1.134
 1814W        W 2811   5.958   1.234   0.640
 1815W        W 2812   3.764   1.533   2.223
 1816W        W 2813   7.117   4.665   0.600
 1817W        W 2814   5.474   0.387   4.764
 1818W        W 2815   7.461   4.369   3.499
 1819W        W 2816   5.412   4.293   0.654
 1820W        W 2817   5.084   2.527   6.522
 1821W        W 2818   2.245   1.882   6.034
 1822W        W 2819   1.216   2.837   3.160
 1823W        W 2820   3.278   0.957   6.817
 1824W        W 2821   5.989   2.246   0.315
 1825W        W 2822   7.474   4.896   3.837
 1826W        W 2823   0.162   5.335   3.125
 1827W        W 2824   0.639   0.516   3.984
 1828W        W 2825   5.772   5.408   1.892
 1829W        W 2826   0.563   6.360   6.866
 1830W        W 2827   1.679   3.131   3.960
 1831W        W 2828   4.232   7.719   1.172
 1832W        W 2829   0.231   0.396   6.987
 1833W        W 2830   4.848   2.928   6.281
 1834W        W 2831   1.862   5.139   2.330
 1835W        W 2832   5.347   1.805   7.285
 1836W        W 2833   5.484   5.382   1.431
 1837W        W 2834   4.147   1.825   2.859
 1838W        W 2835   0.173   6.455   2.522
 1839W        W 2836   5.135   4.834   0.711
 1840W        W 2837   3.278   2.746   0.980
 1841W        W 2838   0.910   2.543   2.820
 1842W        W 2839   7.288   0.628   2.954
 1843W        W 2840   1.905   5.102   4.144
 1844W        W 2841   6.699   5.577   6.068
 1845W        W 2842   1.514   6.414   4.897
 1846W        W 2843   3.148   2.064   6.582
 1847W        W 2844   7.590   4.065   6.029
 1848W        W 2845   7.778   2.212   3.494
 1849W        W 2846   2.633   6.592   6.671
 1850W        W 2847   7.014   0.758   5.575
 1851W        W 2848   3.049   3.194   0.397
 1852W        W 2849   5.751   4.509   2.904
 1853W        W 2850   2.008   2.416   2.989
 1854W        W 2851   6.247   5.436   5.905
 1855W        W 2852   0.508   3.635   5.074
 1856W        W 2853   5.797   3.576   0.022
 1857W        W 2854   6.622   0.755   5.958
 1858W        W 2855   1.246   4.714   4.776
 1859W        W 2856   2.197   0.056   1.894
 1860W        W 2857   2.090   3.210   2.385
 1861W        W 2858   1.817   4.992   1.822
 1862W        W 2859   4.865   2.099   6.601
 1863W        W 2860   6.064   3.808   1.584
 1864W        W 2861   5.454   0.482   0.221
 1865W        W 2862   3.931   4.829   6.378
 1866W        W 2863   4.674   1.634   4.049
 1867W        W 2864   3.348   5.392   4.159
 1868W        W 2865   6.829   1.081   2.116
 1869W        W 2866   3.873   3.403   4.280
 1870W        W 2867   0.250   5.444   2.615
 1871W        W 2868   2.171   3.129   1.158
 1872W        W 2869   0.761   5.834   1.365
 1873W        W 2870   2.897   5.189   1.945
 1874W        W 2871   6.924   5.663   7.516
 1875W        W 2872   0.999   1.575   1.240
 1876W        W 2873   2.669   5.857   0.711
 1877W        W 2874   2.109   6.761   4.220
 1878W        W 2875   1.855   0.008   4.644
 1879W        W 2876   1.808   0.282   6.695
 1880W        W 2877   1.275   3.983   5.953
 1881W        W 2878   7.166   7.340   7.073
 1882W        W 2879   4.955   7.670   5.810
 1883W        W 2880   6.068   6.120   1.895
 1884W        W 2881   3.845   4.224   0.864
 1885W        W 2882   4.206   1.064   4.467
 1886W        W 2883   3.553   7.069   3.098
 1887W        W 2884   0.902   5.098   5.379
 1888W        W 2885   3.240   5.366   7.827
 1889W        W 2886   6.828   2.538   2.613
 1890W        W 2887   7.382   1.826   7.628
 1891W        W 2888   7.585   2.101   4.553
 1892W        W 2889   0.652   1.996   3.002
 1893W        W 2890   1.988   3.482   3.790
 1894W        W 2891   6.788   4.567   1.136
 1895W        W 2892   6.986   1.091   7.327
 1896W        W 2893   6.021   2.005   3.662
 1897W        W 2894   3.232   3.637   1.184
 1898W        W 2895   7.208   6.114   2.773
 1899W        W 2896   2.496   3.248   1.568
 1900W        W 2897   5.125   4.333   6.740
 1901W        W 2898   5.919   0.474   3.160
 1902W        W 2899   2.226   5.983   3.793
 1903W        W 2900   3.987   5.360   6.617
 1904W        W 2901   4.480   4.619   1.488
 1905W        W 2902   7.046   1.351   2.748
 1906W        W 2903   5.804   2.326   4.417
 1907W        W 2904   4.930   2.152   0.417
 1908W        W 2905   1.365   5.575   2.878
 1909W        W 2906   5.550   0.934   0.903
 1910W        W 2907   7.504   0.718   2.275
 1911W        W 2908   3.090   7.742   7.182
 1912W        W 2909   4.484   4.262   1.770
 1913W        W 2910   2.129   7.321   4.267
 1914W        W 2911   1.609   5.640   1.037
 1915W        W 2912   6.337   6.748   3.548
 1916W        W 2913   2.731   3.539   2.157
 1917W        W 2914   4.734   1.451   7.433
 1918W        W 2915   7.606   6.997   3.671
 1919W        W 2916   5.458   7.250   7.553
 1920W        W 2917   5.494   0.598   4.215
 1921W        W 2918   4.716   6.765   3.543
 1922W        W 2919   7.744   3.892   3.563
 1923W        W 2920   0.779   0.999   0.453
 1924W        W 2921   5.931   6.818   6.623
 1925W        W 2922   1.308   3.509   7.007
 1926W        W 2923   1.279   7.200   7.412
 1927W        W 2924   1.781   2.625   1.639
 1928W        W 2925   2.386   7.083   7.388
 1929W        W 2926   1.947   4.569   5.697
 1930W        W 2927   3.083   3.534   2.502
 1931W        W 2928   1.068   6.386   6.983
 1932W        W 2929   1.229   0.181   0.542
 1933W        W 2930   1.669   5.554   4.272
 1934W        W 2931   1.354   1.459   6.841
 1935W        W 2932   1.082   0.725   7.076
 1936W        W 2933   0.538   5.265   0.141
 1937W        W 2934   6.805   6.437   2.152
 1938W        W 2935   3.837   6.798   3.835
 1939W        W 2936   4.247   6.437   7.319
 1940W        W 2937   7.244   0.813   4.263
 1941W        W 2938   3.117   3.294   7.520
 1942W        W 2939   2.739   3.922   6.057
 1943W        W 2940   1.110   3.821   1.276
 1944W        W 2941   1.421   1.628   3.957
 1945W        W 2942   5.507   5.082   5.500
 1946W        W 2943   5.989   6.834   2.167
 1947W        W 2944   6.769   6.851   5.832
 1948W        W 2945   6.058   0.478   4.867
 1949W        W 2946   4.480   1.822   4.931
 1950W        W 2947   4.725   0.042   3.589
 1951W        W 2948   7.475   1.578   0.488
 1952W        W 2949   3.558   2.223   5.276
 1953W        W 2950   1.804   0.351   5.506
 1954W        W 2951   1.537   7.087   1.849
 1955W        W 2952   6.088   4.661   1.547
 1956W        W 2953   5.708   1.903   0.037
 1957W        W 2954   5.630   6.787   1.121
 1958W        W 2955   4.092   1.777   3.399
 1959W        W 2956   0.644   2.928   1.359
 1960W        W 2957   6.453   3.035   7.293
 1961W        W 2958   4.664   1.779   1.867
 1962W        W 2959   6.258   2.288   0.773
 1963W        W 2960   7.704   1.951   6.328
 1964W        W 2961   5.886   0.027   5.063
 1965W        W 2962   0.372   2.585   6.091
 1966W        W 2963   7.154   1.682   3.069
 1967W        W 2964   1.520   5.386   2.095
 1968W        W 2965   1.019   1.694   5.050
 1969W        W 2966   7.173   7.619   3.381
 1970W        W 2967   7.083   1.412   3.457
 1971W        W 2968   2.198   3.979   4.941
 1972W        W 2969   7.338   6.605   1.920
 1973W        W 2970   5.544   1.009   4.693
 1974W        W 2971   1.641   7.805   5.591
 1975W        W 2972   5.860   1.826   3.177
 1976W        W 2973   4.464   2.025   0.416
 1977W        W 2974   1.119   1.322   1.653
 1978W        W 2975   6.616   3.000   2.510
 1979W        W 2976   1.498   6.300   7.258
 1980W        W 2977   7.880   4.695   2.447
 1981W        W 2978   1.089   0.951   6.147
 1982W        W 2979   7.939   7.609   1.269
 1983W        W 2980   7.814   6.561   6.840
 1984W        W 2981   0.905   2.939   1.780
 1985W        W 2982   7.928   7.158   1.884
 1986W        W 2983   3.392   6.196   5.279
 1987W        W 2984   6.058   4.792   2.478
 1988W        W 2985   2.781   0.949   5.994
 1989W        W 2986   6.084   7.280   4.401
 1990W        W 2987   6.257   2.546   7.049
 1991W        W 2988   3.231   4.870   3.951
 1992W        W 2989   2.786   2.278   2.540
 1993W        W 2990   3.359   7.246   2.620
 1994W        W 2991   1.914   4.505   0.423
 1995W        W 2992   6.547   1.250   2.513
 1996W        W 2993   3.953   4.801   4.660
 1997W        W 2994   3.942   5.517   7.113
 1998W        W 2995   2.064   5.285   4.671
 1999W        W 2996   0.980   5.934   6.746
 2000W        W 2997   4.230   3.791   5.564
 2001W        W 2998   7.683   7.643   1.674
 2002W        W 2999   0.227   0.752   3.516
 2003W        W 3000   2.263   0.605   6.523
 2004W        W 3001   0.232   0.842   4.000
 2005W        W 3002   2.121   3.572   5.233
 2006W        W 3003   6.693   0.490   2.870
 2007W        W 3004   2.684   4.019   1.933
 2008W        W 3005   1.815   1.539   3.692
 2009W        W 3006   2.143   5.431   0.147
 2010W        W 3007   6.948   5.099   0.420
 2011W        W 3008   4.020   3.477   7.739
 2012W        W 3009   2.827   0.854   6.900
 2013W        W 3010   4.912   7.167   6.819
 2014W        W 3011   7.252   3.724   3.317
 2015W        W 3012   4.949   4.012   3.649
 2016W        W 3013   0.939   2.608   1.054
 2017W        W 3014   6.930   3.290   1.548
 2018W        W 3015   5.167   2.924   7.698
 2019W        W 3016   6.875   2.443   7.941
 2020W        W 3017   2.224   7.372   2.325
 2021W        W 3018   1.354   6.380   3.694
 2022W        W 3019   6.595   7.303   4.501
 2023W        W 3020   7.065   3.438   6.826
 2024W        W 3021   4.043   3.532   1.679
 2025W        W 3022   7.006   7.441   1.834
 2026W        W 3023   2.497   5.128   0.319
 2027W        W 3024   4.160   1.781   2.363
 2028W        W 3025   6.145   3.224   7.673
 2029W        W 3026   5.229   1.415   3.787
 2030W        W 3027   7.013   5.180   2.507
 2031W        W 3028   6.393   6.526   5.815
 2032W        W 3029   2.329   1.970   4.965
 2033W        W 3030   1.610   4.718   1.373
 2034W        W 3031   5.711   2.009   6.919
 2035W        W 3032   3.969   2.968   3.260
 2036W        W 3033   0.744   3.989   0.786
 2037W        W 3034   0.895   3.346   2.040
 2038W        W 3035   6.964   1.535   2.299
 2039W        W 3036   1.916   6.162   6.509
 2040W        W 3037   0.810   3.740   4.701
 2041W        W 3038   3.886   2.596   6.532
 2042W        W 3039   4.173   0.688   4.726
 2043W        W 3040   6.142   3.025   2.139
 2044W        W 3041   2.978   5.242   6.632
 2045W        W 3042   5.367   4.123   7.115
 2046W        W 3043   6.887   0.308   4.326
 2047W        W 3044   7.839   1.862   0.694
 2048W        W 3045   6.764   7.893   6.301
 2049W        W 3046   2.869   5.454   3.157
 2050W        W 3047   6.847   7.061   6.775
 2051W        W 3048   6.100   5.880   4.204
 2052W        W 3049   0.696   2.593   5.201
 2053W        W 3050   4.785   7.683   3.005
 2054W        W 3051   3.485   1.510   4.750
 2055W        W 3052   6.052   5.610   7.202
 2056W        W 3053   5.622   2.695   7.608
 2057W        W 3054   5.561   2.458   2.033
 2058W        W 3055   0.203   4.385   2.512
 2059W        W 3056   7.213   2.023   6.405
 2060W        W 3057   3.345   1.759   6.980
 2061W        W 3058   7.265   3.383   4.131
 2062W        W 3059   0.897   2.437   1.927
 2063W        W 3060   6.744   5.944   5.570
 2064W        W 3061   3.267   7.841   2.957
 2065W        W 3062   5.191   4.403   4.922
 2066W        W 3063   4.155   3.388   0.822
 2067W        W 3064   5.980   0.222   6.923
 2068W        W 3065   5.361   5.747   4.392
 2069W        W 3066   5.443   6.904   6.586
 2070W        W 3067   2.904   0.136   3.613
 2071W        W 3068   7.346   5.819   4.287
 2072W        W 3069   3.982   0.049   1.331
 2073W        W 3070   0.950   7.602   7.897
 2074W        W 3071   2.175   4.301   4.528
 2075W        W 3072   5.490   1.311   1.813
 2076W        W 3073   1.969   0.800   7.492
 2077W        W 3074   6.375   0.152   3.029
 2078W        W 3075   0.631   2.561   6.552
 2079W        W 3076   6.940   7.160   3.148
 2080W        W 3077   2.343   4.822   4.155
 2081W        W 3078   0.904   0.203   6.894
 2082W        W 3079   6.977   2.464   1.216
 2083W        W 3080   4.050   4.918   1.443
 2084W        W 3081   1.003   7.335   3.802
 2085W        W 3082   7.680   2.976   3.495
 2086W        W 3083   6.036   4.268   4.576
 2087W        W 3084   7.041   7.097   7.540
 2088W        W 3085   0.184   4.545   7.415
 2089W        W 3086   3.354   2.013   1.790
 2090W        W 3087   2.768   0.619   3.835
 2091W        W 3088   0.665   0.563   4.547
 2092W        W 3089   1.060   6.492   1.365
 2093W        W 3090   5.555   7.621   7.290
 2094W        W 3091   3.691   5.193   2.841
 2095W        W 3092   7.109   0.781   0.947
 2096W        W 3093   7.685   3.752   0.675
 2097W        W 3094   7.342   4.455   4.127
 2098W        W 3095   0.872   0.546   1.706
 2099W        W 3096   7.572   0.771   0.087
 2100W        W 3097   3.516   5.082   0.621
 2101W        W 3098   5.756   2.698   0.226
 2102W        W 3099   1.899   2.264   4.275
 2103W        W 3100   6.558   6.847   0.143
 2104W        W 3101   0.443   7.415   7.157
 2105W        W 3102   1.786   7.842   0.605
 2106W        W 3103   1.247   2.453   5.273
 2107W        W 3104   7.451   7.665   4.820
 2108W        W 3105   1.708   0.644   5.006
 2109W        W 3106   2.120   6.678   2.532
 2110W        W 3107   5.907   4.243   7.130
 2111W        W 3108   6.799   7.672   5.475
 2112W        W 3109   0.806   3.828   6.025
 2113W        W 3110   4.331   5.525   0.889
 2114W        W 3111   2.074   1.051   0.724
 2115W        W 3112   7.492   0.128   5.132
 2116W        W 3113   5.073   7.462   4.394
 2117W        W 3114   6.397   7.263   3.116
 2118W        W 3115   5.363   1.553   5.650
 2119W        W 3116   3.310   5.472   0.875
 2120W        W 3117   4.911   1.143   4.080
 2121W        W 3118   3.717   5.742   5.093
 2122W        W 3119   4.792   2.132   4.068
 2123W        W 3120   7.317   7.223   4.236
 2124W        W 3121   1.492   0.154   5.789
 2125W        W 3122   0.327   2.872   7.453
 2126W        W 3123   2.571   4.005   2.386
 2127W        W 3124   1.078   7.080   2.087
 2128W        W 3125   6.871   3.910   6.229
 2129W        W 3126   2.419   6.278   0.534
 2130W        W 3127   7.835   2.327   2.343
 2131W        W 3128   2.330   4.349   0.738
 2132W        W 3129   4.846   5.551   4.475
 2133W        W 3130   5.207   3.082   6.648
 2134W        W 3131   3.010   2.529   6.167
 2135W        W 3132   1.520   3.293   3.084
 2136W        W 3133   5.039   4.198   2.823
 2137W        W 3134   2.634   6.972   4.249
 2138W        W 3135   7.788   2.970   6.560
 2139W        W 3136   4.629   6.282   1.933
 2140W        W 3137   4.204   0.818   0.112
 2141W        W 3138   6.707   0.517   4.802
 2142W        W 3139   4.422   0.979   3.282
 2143W        W 3140   1.565   6.430   4.329
 2144W        W 3141   0.408   0.875   3.054
 2145W        W 3142   4.923   0.493   1.603
 2146W        W 3143   6.733   6.893   7.191
 2147W        W 3144   5.080   6.180   0.174
 2148W        W 3145   1.136   2.339   1.479
 2149W        W 3146   4.916   3.628   2.192
 2150W        W 3147   4.574   7.926   4.492
 2151W        W 3148   6.431   2.981   4.706
 2152W        W 3149   4.453   1.194   1.762
 2153W        W 3150   3.291   6.397   4.633
 2154W        W 3151   6.050   6.236   2.412
 2155W        W 3152   3.663   7.116   1.159
 2156W        W 3153   0.318   6.306   3.936
 2157W        W 3154   1.314   4.224   6.464
 2158W        W 3155   5.599   6.659   2.415
 2159W        W 3156   6.858   0.999   4.632
 2160W        W 3157   6.632   4.112   7.472
 2161W        W 3158   4.568   6.102   7.586
 2162W        W 3159   6.335   5.825   4.635
 2163W        W 3160   0.518   0.560   5.704
 2164W        W 3161   3.605   6.627   0.859
 2165W        W 3162   7.566   3.554   1.996
 2166W        W 3163   5.144   0.091   0.880
 2167W        W 3164   5.644   4.654   5.854
 2168W        W 3165   6.440   5.876   3.756
 2169W        W 3166   7.455   4.821   1.507
 2170W        W 3167   7.360   2.670   0.803
 2171W        W 3168   3.747   0.504   7.963
 2172W        W 3169   3.042   6.882   7.897
 2173W        W 3170   4.485   1.081   3.947
 2174W        W 3171   7.461   0.564   5.467
 2175W        W 3172   2.814   2.144   1.301
 2176W        W 3173   7.560   2.897   0.353
 2177W        W 3174   4.115   3.401   3.527
 2178W        W 3175   2.665   1.281   2.603
 2179W        W 3176   6.451   7.251   5.908
 2180W        W 3177   4.643   2.299   1.643
 2181W        W 3178   5.734   6.775   3.586
 2182W        W 3179   3.903   3.805   0.033
 2183W        W 3180   1.245   1.892   7.627
 2184W        W 3181   6.143   5.036   1.992
 2185W        W 3182   1.369   0.912   4.711
 2186W        W 3183   3.060   7.139   1.803
 2187W        W 3184   0.136   7.306   4.068
 2188W        W 3185   7.712   2.916   1.059
 2189W        W 3186   6.502   4.965   6.060
 2190W        W 3187   3.713   3.025   7.632
 2191W        W 3188   1.917   1.758   4.161
 2192W        W 3189   4.830   5.991   4.145
 2193W        W 3190   6.293   5.731   2.574
 2194W        W 3191   6.619   6.289   4.656
 2195W        W 3192   6.605   0.380   5.674
 2196W        W 3193   1.946   6.233   2.305
 2197W        W 3194   6.194   2.331   4.114
 2198W        W 3195   6.335   2.501   4.544
 2199W        W 3196   7.197   7.111   5.707
 2200W        W 3197   3.845   7.229   3.597
 2201W        W 3198   3.094   5.030   7.484
 2202W        W 3199   1.483   2.462   2.911
 2203W        W 3200   7.127   5.552   6.250
 2204W        W 3201   2.259   4.979   2.707
 2205W        W 3202   4.527   7.290   3.814
 2206W        W 3203   4.809   7.388   6.248
 2207W        W 3204   1.508   0.918   0.706
 2208W        W 3205   1.471   1.984   5.645
 2209W        W 3206   6.239   7.153   2.653
 2210W        W 3207   0.248   6.419   4.520
 2211W        W 3208   5.987   6.706   4.450
 2212W        W 3209   6.414   5.671   0.829
 2213W        W 3210   1.709   3.452   2.051
 2214W        W 3211   5.027   6.128   3.666
 2215W        W 3212   6.462   3.965   1.228
 2216W        W 3213   1.542   2.613   4.929
 2217W        W 3214   6.478   7.410   2.230
 2218W        W 3215   4.171   7.735   0.390
 2219W        W 3216   3.951   3.773   3.846
 2220W        W 3217   5.976   4.273   1.778
 2221W        W 3218   4.231   3.468   6.724
 2222W        W 3219   7.483   5.725   2.533
 2223W        W 3220   4.136   3.286   2.536
 2224W        W 3221   0.953   1.296   4.738
 2225W        W 3222   4.059   6.338   7.776
 2226W        W 3223   6.695   3.304   5.453
 2227W        W 3224   5.764   7.248   1.329
 2228W        W 3225   4.039   0.591   4.170
 2229W        W 3226   2.926   2.115   7.123
 2230W        W 3227   5.555   3.660   3.024
 2231W        W 3228   2.376   4.450   5.033
 2232W        W 3229   2.247   4.159   6.946
 2233W        W 3230   5.390   3.030   1.382
 2234W        W 3231   2.685   5.626   4.663
 2235W        W 3232   7.443   7.093   3.193
 2236W        W 3233   5.739   3.897   4.912
 2237W        W 3234   4.997   3.088   4.195
 2238W        W 3235   2.423   0.289   3.616
 2239W        W 3236   1.967   3.293   3.298
 2240W        W 3237   1.714   3.865   5.086
 2241W        W 3238   5.251   3.082   4.908
 2242W        W 3239   1.780   2.873   2.126
 2243W        W 3240   3.029   1.021   7.718
 2244W        W 3241   6.670   6.111   7.621
 2245W        W 3242   0.292   7.669   4.888
 2246W        W 3243   7.135   7.534   6.400
 2247W        W 3244   4.574   3.697   5.924
 2248W        W 3245   2.107   2.008   0.655
 2249W        W 3246   6.875   3.095   0.971
 2250W        W 3247   5.652   6.236   1.100
 2251W        W 3248   3.255   7.550   6.398
 2252W        W 3249   3.218   6.107   1.907
 2253W        W 3250   6.686   6.003   4.203
 2254W        W 3251   1.544   0.199   5.038
 2255W        W 3252   1.450   0.460   4.087
 2256W        W 3253   2.841   6.672   1.246
 2257W        W 3254   1.278   3.882   4.863
 2258W        W 3255   5.001   5.580   7.208
 2259W        W 3256   6.966   4.513   7.226
 2260W        W 3257   5.764   7.175   5.399
 2261W        W 3258   4.330   1.230   4.911
 2262W        W 3259   1.903   2.693   0.976
 2263W        W 3260   5.820   0.175   0.058
 2264W        W 3261   0.478   6.759   5.044
 2265W        W 3262   4.043   5.097   0.883
 2266W        W 3263   5.586   1.293   3.450
 2267W        W 3264   0.690   5.426   4.971
 2268W        W 3265   2.518   0.477   4.889
 2269W        W 3266   0.700   3.652   7.780
 2270W        W 3267   3.209   1.862   4.540
 2271W        W 3268   1.488   5.189   6.388
 2272W        W 3269   1.044   1.307   4.171
 2273W        W 3270   6.523   5.783   7.263
 2274W        W 3271   3.752   0.503   6.073
 2275W        W 3272   7.441   5.738   4.790
 2276W        W 3273   4.783   6.740   2.770
 2277W        W 3274   3.101   5.711   1.584
 2278W        W 3275   3.629   3.848   0.435
 2279W        W 3276   5.246   2.146   3.864
 2280W        W 3277   0.525   2.920   5.693
 2281W        W 3278   6.967   2.028   1.001
 2282W        W 3279   4.198   2.082   1.728
 2283W        W 3280   3.858   0.726   2.009
 2284W        W 3281   1.931   6.158   1.784
 2285W        W 3282   2.208   0.347   1.461
 2286W        W 3283   5.854   4.893   3.268
 2287W        W 3284   1.214   5.196   5.003
 2288W        W 3285   2.459   0.814   2.590
 2289W        W 3286   7.754   1.383   6.869
 2290W        W 3287   7.678   3.352   3.801
 2291W        W 3288   3.599   4.221   3.202
 2292W        W 3289   2.079   7.093   2.774
 2293W        W 3290   0.333   0.955   2.018
 2294W        W 3291   3.288   3.576   0.228
 2295W        W 3292   5.373   4.605   5.382
 2296W        W 3293   4.640   3.769   4.008
 2297W        W 3294   1.031   7.581   2.617
 2298W        W 3295   1.216   3.720   3.284
 2299W        W 3296   6.590   5.412   2.234
 2300W        W 3297   6.456   1.651   3.801
 2301W        W 3298   4.944   2.586   4.064
 2302W        W 3299   4.989   1.796   3.641
 2303W        W 3300   5.051   0.339   4.028
 2304W        W 3301   3.642   3.473   2.554
 2305W        W 3302   3.650   0.017   5.881
 2306W        W 3303   4.218   7.699   3.800
 2307W        W 3304   7.775   6.169   2.697
 2308W        W 3305   6.416   1.033   4.864
 2309W        W 3306   6.368   3.887   6.190
 2310W        W 3307   1.510   2.028   4.292
 2311W        W 3308   0.429   1.961   2.520
 2312W        W 3309   1.677   1.401   4.370
 2313W        W 3310   2.523   4.450   1.529
 2314W        W 3311   7.815   3.313   6.166
 2315W        W 3312   6.936   1.818   5.127
 2316W        W 3313   0.129   3.465   3.483
 2317W        W 3314   7.636   6.668   2.387
 2318W        W 3315   6.046   2.979   1.639
 2319W        W 3316   1.386   7.552   7.050
 2320W        W 3317   3.419   3.750   6.563
 2321W        W 3318   2.489   5.551   3.482
 2322W        W 3319   6.005   6.215   4.596
 2323W        W 3320   1.671   1.758   0.733
 2324W        W 3321   4.665   0.310   2.633
 2325W        W 3322   0.728   5.926   4.751
 2326W        W 3323   7.587   2.137   1.851
 2327W        W 3324   1.426   4.453   7.332
 2328W        W 3325   1.582   1.811   6.262
 2329W        W 3326   5.125   4.773   4.623
 2330W        W 3327   6.228   5.542   5.016
 2331W        W 3328   2.889   1.781   2.951
 2332W        W 3329   3.983   2.134   7.231
 2333W        W 3330   3.016   0.458   6.063
 2334W        W 3331   7.516   3.142   2.407
 2335W        W 3332   6.396   3.310   4.315
 2336W        W 3333   4.122   0.905   3.715
 2337W        W 3334   6.085   6.156   1.349
 2338W        W 3335   5.216   2.380   5.041
 2339W        W 3336   3.280   5.508   2.105
 2340W        W 3337   1.845   4.741   3.263
 2341W        W 3338   7.701   6.138   2.143
 2342W        W 3339   5.475   5.899   7.382
 2343W        W 3340   1.669   4.319   6.824
 2344W        W 3341   3.161   6.835   0.380
 2345W        W 3342   4.757   3.484   4.378
 2346W        W 3343   0.737   3.278   4.419
 2347W        W 3344   2.713   1.525   3.347
 2348W        W 3345   6.111   6.953   5.798
 2349W        W 3346   4.017   1.925   0.666
 2350W        W 3347   0.895   0.387   2.244
 2351W        W 3348   1.253   7.497   6.562
 2352W        W 3349   2.128   1.851   0.100
 2353W        W 3350   2.124   1.533   0.523
 2354W        W 3351   1.473   0.910   7.377
 2355W        W 3352   5.721   2.465   5.275
 2356W        W 3353   7.246   2.710   7.094
 2357W        W 3354   0.382   2.418   2.772
 2358W        W 3355   6.748   0.224   3.354
 2359W        W 3356   7.420   6.188   3.252
 2360W        W 3357   2.365   4.870   1.741
 2361W        W 3358   2.344   5.361   3.023
 2362W        W 3359   4.668   2.637   5.943
 2363W        W 3360   5.416   0.299   1.415
 2364W        W 3361   0.714   0.625   1.251
 2365W        W 3362   6.093   2.588   7.528
 2366W        W 3363   0.735   2.176   3.923
 2367W        W 3364   2.472   4.007   7.906
 2368W        W 3365   5.545   7.827   1.351
 2369W        W 3366   0.124   0.319   5.971
 2370W        W 3367   3.785   5.977   1.942
 2371W        W 3368   6.416   1.162   0.953
 2372W        W 3369   0.616   5.456   4.477
 2373W        W 3370   4.770   0.497   1.006
 2374W        W 3371   6.089   6.457   7.037
 2375W        W 3372   4.948   4.407   4.291
 2376W        W 3373   4.021   0.525   1.183
 2377W        W 3374   6.944   0.792   2.590
 2378W        W 3375   0.982   5.379   3.104
 2379W        W 3376   1.874   6.790   5.058
 2380W        W 3377   5.809   3.002   6.001
 2381W        W 3378   5.939   0.068   0.571
 2382W        W 3379   5.789   1.072   3.986
 2383W        W 3380   1.422   7.697   1.736
 2384W        W 3381   0.399   6.776   7.109
 2385W        W 3382   2.571   6.662   5.562
 2386W        W 3383   0.562   5.079   2.993
 2387W        W 3384   0.048   2.331   1.604
 2388W        W 3385   5.876   3.898   5.409
 2389W        W 3386   6.328   3.468   2.389
 2390W        W 3387   7.739   4.039   4.773
 2391W        W 3388   7.054   3.440   6.324
 2392W        W 3389   0.449   6.542   6.282
 2393W        W 3390   3.318   0.495   0.563
 2394W        W 3391   4.597   5.111   0.743
 2395W        W 3392   1.876   1.648   5.698
 2396W        W 3393   6.973   7.115   6.179
 2397W        W 3394   0.422   0.924   4.851
 2398W        W 3395   3.531   5.749   1.316
 2399W        W 3396   5.920   3.782   2.504
 2400W        W 3397   4.475   6.827   5.437
 2401W        W 3398   1.503   1.777   7.208
 2402W        W 3399   6.714   0.337   0.696
 2403W        W 3400   3.563   3.407   1.516
 2404W        W 3401   1.387   1.882   1.261
 2405W        W 3402   0.260   2.685   6.922
 2406W        W 3403   1.723   7.499   2.662
 2407W        W 3404   5.693   3.337   6.945
 2408W        W 3405   1.849   1.647   2.752
 2409W        W 3406   1.766   0.051   7.825
 2410W        W 3407   0.105   3.608   2.334
 2411W        W 3408   0.006   4.725   1.240
 2412W        W 3409   5.667   1.540   7.806
 2413W        W 3410   5.573   7.132   2.179
 2414W        W 3411   3.560   7.734   1.169
 2415W        W 3412   7.490   5.391   5.845
 2416W        W 3413   2.977   3.056   5.062
 2417W        W 3414   0.345   7.358   4.519
 2418W        W 3415   4.143   5.910   4.855
 2419W        W 3416   6.805   5.598   0.408
 2420W        W 3417   6.976   0.385   5.312
 2421W        W 3418   2.811   0.996   3.451
 2422W        W 3419   1.947   3.795   2.443
 2423W        W 3420   0.812   1.661   2.568
 2424W        W 3421   3.529   3.205   7.190
 2425W        W 3422   4.083   5.937   0.694
 2426W        W 3423   4.376   6.682   0.408
 2427W        W 3424   1.649   6.723   0.546
 2428W        W 3425   3.604   2.147   6.891
 2429W        W 3426   1.018   7.369   0.304
 2430W        W 3427   4.168   1.601   1.884
 2431W        W 3428   1.307   0.519   7.608
 2432W        W 3429   3.632   4.877   5.559
 2433W        W 3430   1.813   1.007   5.984
 2434W        W 3431   6.402   2.012   1.215
 2435W        W 3432   7.448   2.473   3.769
 2436W        W 3433   5.906   1.622   7.385
 2437W        W 3434   3.027   5.059   0.292
 2438W        W 3435   1.573   6.450   1.006
 2439W        W 3436   2.864   7.593   2.671
 2440W        W 3437   2.968   3.367   1.743
 2441W        W 3438   5.937   4.965   0.338
 2442W        W 3439   0.337   0.353   1.144
 2443W        W 3440   0.361   1.744   7.038
 2444W        W 3441   5.234   1.069   5.671
 2445W        W 3442   4.977   0.911   0.710
 2446W        W 3443   6.265   4.616   0.497
 2447W        W 3444   0.693   2.947   6.170
 2448W        W 3445   0.556   1.485   3.769
 2449W        W 3446   5.365   5.581   1.020
 2450W        W 3447   5.735   7.279   4.881
 2451W        W 3448   4.213   6.881   7.181
 2452W        W 3449   5.180   2.272   4.394
 2453W        W 3450   2.970   3.943   0.026
 2454W        W 3451   7.019   2.481   5.075
 2455W        W 3452   1.423   7.909   2.635
 2456W        W 3453   5.348   3.596   5.300
 2457W        W 3454   2.742   3.623   7.659
 2458W        W 3455   7.126   4.794   0.006
 2459W        W 3456   2.188   4.181   5.445
 2460W        W 3457   4.994   5.218   1.131
 2461W        W 3458   2.401   7.662   2.614
 2462W        W 3459   2.248   3.767   3.332
 2463W        W 3460   5.732   7.474   3.623
 2464W        W 3461   4.112   5.575   5.922
 2465W        W 3462   6.792   3.656   4.180
 2466W        W 3463   4.207   2.737   1.044
 2467W        W 3464   2.364   0.408   5.367
 2468W        W 3465   1.558   7.899   6.714
 2469W        W 3466   4.589   4.633   0.505
 2470W        W 3467   7.105   2.168   5.639
 2471W        W 3468   6.606   0.809   6.475
 2472W        W 3469   3.922   1.346   3.645
 2473W        W 3470   7.095   3.638   1.883
 2474W        W 3471   3.593   1.170   1.919
 2475W        W 3472   1.702   3.344   5.098
 2476W        W 3473   5.229   7.800   4.676
 2477W        W 3474   3.425   4.146   7.431
 2478W        W 3475   4.772   6.931   2.233
 2479W        W 3476   4.193   1.589   4.560
 2480W        W 3477   4.607   1.358   4.465
 2481W        W 3478   4.005   6.727   5.289
 2482W        W 3479   0.075   6.754   4.087
 2483W        W 3480   5.718   2.274   3.918
 2484W        W 3481   1.393   2.884   0.928
 2485W        W 3482   3.058   2.220   2.966
 2486W        W 3483   0.782   4.666   5.703
 2487W        W 3484   5.589   7.199   3.195
 2488W        W 3485   5.912   6.695   5.431
 2489W        W 3486   6.210   6.125   0.825
 2490W        W 3487   4.046   4.061   1.727
 2491W        W 3488   3.890   2.319   1.078
 2492W        W 3489   5.753   5.306   4.319
 2493W        W 3490   0.509   3.820   0.246
 2494W        W 3491   0.234   1.455   4.714
 2495W        W 3492   5.437   7.804   5.547
 2496W        W 3493   4.380   7.188   1.236
 2497W        W 3494   7.499   0.765   1.802
 2498W        W 3495   1.379   4.820   5.301
 2499W        W 3496   0.570   7.420   0.092
 2500W        W 3497   7.607   1.091   5.214
 2501W        W 3498   1.402   5.197   2.583
 2502W        W 3499   5.702   2.681   2.897
 2503W        W 3500   0.181   7.594   3.207
 2504W        W 3501   0.159   5.154   6.984
 2505W        W 3502   5.437   1.667   5.133
 2506W        W 3503   1.156   7.763   4.077
 2507W        W 3504   2.675   1.722   1.055
 2508W        W 3505   1.880   6.525   1.425
 2509W        W 3506   4.205   2.435   0.133
 2510W        W 3507   3.630   3.316   3.366
 2511W        W 3508   2.681   5.839   6.015
 2512W        W 3509   1.880   3.799   7.031
 2513W        W 3510   6.251   4.524   3.358
 2514W        W 3511   2.871   3.415   5.350
 2515W        W 3512   0.198   5.841   5.600
 2516W        W 3513   6.189   2.807   3.303
 2517W        W 3514   2.589   2.262   0.769
 2518W        W 3515   0.083   7.937   2.788
 2519W        W 3516   1.427   7.550   7.745
 2520W        W 3517   7.312   3.500   2.806
 2521W        W 3518   2.446   2.640   0.448
 2522W        W 3519   0.281   1.747   3.311
 2523W        W 3520   5.383   6.156   3.094
 2524W        W 3521   3.305   6.341   6.872
 2525W        W 3522   5.276   7.496   3.361
 2526W        W 3523   3.836   4.279   7.706
 2527W        W 3524   2.683   4.563   2.004
 2528W        W 3525   6.428   5.386   6.414
 2529W        W 3526   4.001   7.482   5.566
 2530W        W 3527   1.161   0.759   2.502
 2531W        W 3528   0.785   0.665   6.697
 2532W        W 3529   3.474   1.128   1.159
 2533W        W 3530   1.960   1.695   1.705
 2534W        W 3531   7.498   5.787   5.313
 2535W        W 3532   3.669   1.598   1.698
 2536W        W 3533   6.566   6.957   1.403
 2537W        W 3534   5.279   4.300   5.811
 2538W        W 3535   2.570   5.866   3.061
 2539W        W 3536   3.566   6.301   0.415
 2540W        W 3537   5.530   4.333   4.443
 2541W        W 3538   1.692   2.810   0.502
 2542W        W 3539   3.939   6.346   6.518
 2543W        W 3540   5.311   5.943   1.339
 2544W        W 3541   4.580   5.062   2.598
 2545W        W 3542   4.269   3.752   4.336
 2546W        W 3543   2.388   1.718   5.486
 2547W        W 3544   1.007   4.147   7.490
 2548W        W 3545   5.623   3.214   3.584
 2549W        W 3546   4.043   7.312   6.964
 2550W        W 3547   6.120   0.530   5.931
 2551W        W 3548   2.690   0.122   7.272
 2552W        W 3549   7.751   4.845   6.838
 2553W        W 3550   0.706   3.205   5.310
 2554W        W 3551   3.636   5.054   7.798
 2555W        W 3552   2.852   5.828   2.154
 2556W        W 3553   1.063   1.896   1.708
 2557W        W 3554   2.323   3.788   5.739
 2558W        W 3555   3.314   3.757   3.485
 2559W        W 3556   3.992   2.676   3.703
 2560W        W 3557   7.847   6.382   4.938
 2561W        W 3558   6.192   1.503   5.375
 2562W        W 3559   7.272   5.695   3.401
 2563W        W 3560   1.751   3.885   6.434
 2564W        W 3561   3.514   5.623   2.727
 2565W        W 3562   7.586   2.940   2.819
 2566W        W 3563   6.937   2.368   2.131
 2567W        W 3564   2.582   6.225   0.985
 2568W        W 3565   5.544   1.766   3.837
 2569W        W 3566   6.619   1.096   7.711
 2570W        W 3567   2.931   3.060   2.293
 2571W        W 3568   1.123   7.188   4.267
 2572W        W 3569   2.894   2.756   0.642
 2573W        W 3570   4.837   1.539   3.198
 2574W        W 3571   6.963   6.473   7.093
 2575W        W 3572   4.966   7.599   3.900
 2576W        W 3573   2.811   7.005   5.059
 2577W        W 3574   0.876   7.198   7.053
 2578W        W 3575   5.157   6.276   1.024
 2579W        W 3576   5.243   7.000   3.580
 2580W        W 3577   7.417   4.170   5.291
 2581W        W 3578   3.974   5.042   3.227
 2582W        W 3579   6.913   4.042   7.070
 2583W        W 3580   7.155   6.183   7.506
 2584W        W 3581   7.773   5.127   4.943
 2585W        W 3582   4.672   6.359   0.959
 2586W        W 3583   4.944   0.346   4.545
 2587W        W 3584   7.732   1.634   1.085
 2588W        W 3585   1.000   5.871   6.157
 2589W        W 3586   4.285   1.510   0.373
 2590W        W 3587   6.059   7.050   0.013
 2591W        W 3588   2.436   1.738   1.533
 2592W        W 3589   6.609   2.451   5.908
 2593W        W 3590   1.338   5.068   4.095
 2594W        W 3591   4.436   4.952   4.700
 2595W        W 3592   5.545   2.630   5.819
 2596W        W 3593   5.132   2.349   6.064
 2597W        W 3594   0.081   4.084   7.220
 2598W        W 3595   2.168   1.323   7.575
 2599W        W 3596   1.284   0.581   5.247
 2600W        W 3597   3.938   2.545   4.599
 2601W        W 3598   1.451   5.430   3.326
 2602W        W 3599   6.564   4.721   1.683
 2603W        W 3600   3.305   6.248   3.908
 2604W        W 3601   5.047   1.882   4.796
 2605W        W 3602   7.404   4.451   6.934
 2606W        W 3603   2.539   1.081   3.998
 2607W        W 3604   7.445   5.691   7.374
 2608W        W 3605   1.779   5.837   7.500
 2609W        W 3606   5.602   1.385   0.253
 2610W        W 3607   5.429   3.434   7.437
 2611W        W 3608   4.773   4.473   2.067
 2612W        W 3609   0.097   5.353   7.504
 2613W        W 3610   6.928   6.967   5.344
 2614W        W 3611   1.612   1.833   0.224
 2615W        W 3612   4.544   4.298   2.798
 2616W        W 3613   7.754   2.915   4.730
 2617W        W 3614   1.968   1.488   6.143
 2618W        W 3615   3.397   2.205   7.298
 2619W        W 3616   2.638   5.580   2.656
 2620W        W 3617   6.586   7.082   1.879
 2621W        W 3618   4.848   0.703   3.729
 2622W        W 3619   1.020   6.960   7.857
 2623W        W 3620   0.843   4.232   3.082
 2624W        W 3621   0.961   3.154   7.178
 2625W        W 3622   6.508   3.033   1.689
 2626W        W 3623   5.181   0.446   6.438
 2627W        W 3624   3.099   7.176   5.902
 2628W        W 3625   5.938   5.882   3.728
 2629W        W 3626   1.843   3.847   5.953
 2630W        W 3627   1.382   2.455   5.771
 2631W        W 3628   7.350   7.728   2.054
 2632W        W 3629   1.239   2.793   6.385
 2633W        W 3630   4.636   2.873   3.803
 2634W        W 3631   6.603   2.841   0.006
 2635W        W 3632   0.430   5.011   7.394
 2636W        W 3633   0.116   2.283   0.522
 2637W        W 3634   0.863   5.963   2.829
 2638W        W 3635   7.716   4.485   2.925
 2639W        W 3636   3.340   2.351   1.299
 2640W        W 3637   6.099   2.473   1.796
 2641W        W 3638   5.504   6.736   7.705
 2642W        W 3639   5.202   0.037   2.373
 2643W        W 3640   4.008   3.318   0.342
 2644W        W 3641   0.901   0.212   2.792
 2645W        W 3642   3.132   4.363   5.842
 2646W        W 3643   0.499   4.755   1.322
 2647W        W 3644   5.062   5.024   3.872
 2648W        W 3645   0.352   3.961   6.317
 2649W        W 3646   4.134   6.265   2.040
 2650W        W 3647   4.417   5.805   3.064
 2651W        W 3648   0.969   1.205   2.800
 2652W        W 3649   3.207   2.276   4.889
 2653W        W 3650   4.385   6.437   5.180
 2654W        W 3651   7.356   5.329   4.073
 2655W        W 3652   4.171   6.358   1.576
 2656W        W 3653   4.412   1.606   7.945
 2657W        W 3654   0.825   0.879   2.137
 2658W        W 3655   3.461   1.513   3.831
 2659W        W 3656   7.386   1.230   2.345
 2660W        W 3657   4.391   5.286   2.990
 2661W        W 3658   2.350   6.068   4.704
 2662W        W 3659   4.935   0.979   7.392
 2663W        W 3660   1.185   6.849   3.728
 2664W        W 3661   4.809   7.666   4.916
 2665W        W 3662   1.461   1.022   3.999
 2666W        W 3663   5.537   3.055   4.506
 2667W        W 3664   3.793   7.193   5.104
 2668W        W 3665   2.762   6.512   1.723
 2669W        W 3666   1.038   2.119   2.606
 2670W        W 3667   4.810   3.757   3.169
 2671W        W 3668   1.083   5.656   5.157
 2672W        W 3669   4.510   6.921   4.274
 2673W        W 3670   2.196   0.491   2.292
 2674W        W 3671   6.480   6.745   3.036
 2675W        W 3672   6.777   7.642   3.739
 2676W        W 3673   0.762   6.766   6.653
 2677W        W 3674   5.611   6.297   3.644
 2678W        W 3675   1.337   5.535   6.050
 2679W        W 3676   4.681   5.141   7.481
 2680W        W 3677   6.710   6.103   0.598
 2681W        W 3678   4.766   5.849   5.820
 2682W        W 3679   1.903   0.933   3.265
 2683W        W 3680   0.618   7.271   2.359
 2684W        W 3681   6.139   4.093   3.673
 2685W        W 3682   7.397   1.834   5.380
 2686W        W 3683   5.077   6.977   7.837
 2687W        W 3684   5.399   2.034   2.209
 2688W        W 3685   0.097   1.645   2.686
 2689W        W 3686   7.627   5.361   6.743
 2690W        W 3687   6.924   3.067   7.126
 2691W        W 3688   7.252   4.129   4.787
 2692W        W 3689   6.126   7.167   3.521
 2693W        W 3690   1.579   4.825   6.908
 2694W        W 3691   0.923   3.950   6.474
 2695W        W 3692   2.529   0.223   1.072
 2696W        W 3693   2.588   6.705   3.512
 2697W        W 3694   4.226   4.744   6.801
 2698W        W 3695   6.264   4.465   6.034
 2699W        W 3696   7.156   1.072   1.734
 2700W        W 3697   1.471   7.468   0.395
 2701W        W 3698   5.913   3.291   4.130
 2702W        W 3699   0.900   0.799   4.854
 2703W        W 3700   4.417   7.592   1.710
 2704W        W 3701   4.921   4.007   5.106
 2705W        W 3702   0.275   5.333   4.146
 2706W        W 3703   1.994   4.544   1.703
 2707W        W 3704   2.027   1.735   7.303
 2708W        W 3705   6.999   5.985   7.067
 2709W        W 3706   1.845   6.662   7.885
 2710W        W 3707   6.505   4.558   6.465
 2711W        W 3708   3.971   3.809   6.387
 2712W        W 3709   6.866   6.457   0.176
 2713W        W 3710   5.227   6.506   2.741
 2714W        W 3711   7.761   5.808   5.718
 2715W        W 3712   2.470   7.346   3.011
 2716W        W 3713   1.544   1.318   6.401
 2717W        W 3714   5.895   2.844   5.518
 2718W        W 3715   4.647   1.710   2.690
 2719W        W 3716   1.334   1.755   3.481
 2720W        W 3717   7.032   0.145   7.198
 2721W        W 3718   5.015   4.413   1.647
 2722W        W 3719   6.726   5.555   2.871
 2723W        W 3720   3.500   6.059   0.857
 2724W        W 3721   0.531   2.883   2.695
 2725W        W 3722   2.778   1.518   2.149
 2726W        W 3723   3.114   0.284   1.877
 2727W        W 3724   3.112   5.929   0.543
 2728W        W 3725   6.688   4.732   0.235
 2729W        W 3726   1.455   7.857   0.155
 2730W        W 3727   1.257   7.387   3.048
 2731W        W 3728   4.750   6.637   7.774
 2732W        W 3729   0.682   6.778   0.893
 2733W        W 3730   4.266   1.732   7.505
 2734W        W 3731   3.093   5.717   6.377
 2735W        W 3732   1.941   2.051   5.285
 2736W        W 3733   2.812   0.644   6.459
 2737W        W 3734   3.022   2.365   1.678
 2738W        W 3735   1.236   2.223   0.976
 2739W        W 3736   0.268   6.081   1.350
 2740W        W 3737   7.427   2.251   1.110
 2741W        W 3738   4.780   2.316   4.770
 2742W        W 3739   3.384   0.432   5.697
 2743W        W 3740   0.300   2.243   2.072
 2744W        W 3741   7.054   2.484   6.316
 2745W        W 3742   5.241   7.376   6.419
 2746W        W 3743   7.014   4.872   5.627
 2747W        W 3744   7.304   7.566   5.508
 2748W        W 3745   5.210   6.529   3.447
 2749W        W 3746   2.503   3.328   4.440
 2750W        W 3747   4.221   4.088   4.778
 2751W        W 3748   5.496   6.863   5.721
 2752W        W 3749   1.265   6.610   6.551
 2753W        W 3750   2.670   1.308   1.681
 2754W        W 3751   7.995   4.407   0.012
 2755W        W 3752   1.432   6.112   2.098
 2756W        W 3753   7.828   4.101   1.053
 2757W        W 3754   5.467   4.236   1.979
 2758W        W 3755   3.857   5.043   7.024
 2759W        W 3756   2.349   3.674   6.796
 2760W        W 3757   7.588   6.424   3.991
 2761W        W 3758   1.563   2.120   1.699
 2762W        W 3759   1.312   3.725   6.570
 2763W        W 3760   3.829   3.872   5.880
 2764W        W 3761   3.929   1.036   1.031
 2765W        W 3762   0.733   4.972   4.744
 2766W        W 3763   4.303   6.481   6.838
 2767W        W 3764   4.388   3.358   3.107
 2768W        W 3765   2.069   5.553   3.951
 2769W        W 3766   1.171   3.364   5.533
 2770W        W 3767   7.431   1.347   7.389
 2771W        W 3768   2.386   1.780   2.018
 2772W        W 3769   3.438   0.478   6.425
 2773W        W 3770   2.782   3.308   4.014
 2774W        W 3771   3.462   4.041   7.919
 2775W        W 3772   5.130   1.191   1.112
 2776W        W 3773   6.228   2.505   5.386
 2777W        W 3774   5.211   7.900   6.282
 2778W        W 3775   2.451   1.045   0.253
 2779W        W 3776   5.116   0.269   2.912
 2780W        W 3777   0.544   5.485   5.421
 2781W        W 3778   4.003   5.369   0.467
 2782W        W 3779   4.037   6.694   4.344
 2783W        W 3780   5.394   3.290   6.177
 2784W        W 3781   2.360   6.946   4.741
 2785W        W 3782   6.525   1.137   3.432
 2786W        W 3783   1.075   6.621   1.856
 2787W        W 3784   5.113   3.858   7.496
 2788W        W 3785   5.332   0.055   0.376
 2789W        W 3786   4.658   5.974   0.586
 2790W        W 3787   7.689   6.814   0.833
 2791W        W 3788   6.705   0.463   6.850
 2792W        W 3789   7.997   0.619   5.394
 2793W        W 3790   2.138   5.733   4.407
 2794W        W 3791   6.503   0.341   6.225
 2795W        W 3792   3.811   7.291   6.022
 2796W        W 3793   6.703   6.035   2.894
 2797W        W 3794   5.022   0.460   7.970
 2798W        W 3795   4.594   5.518   1.316
 2799W        W 3796   3.435   4.136   1.398
 2800W        W 3797   3.846   3.499   2.137
 2801W        W 3798   3.785   3.769   4.648
 2802W        W 3799   5.190   1.025   7.842
 2803W        W 3800   1.686   3.701   0.635
 2804W        W 3801   5.675   0.338   0.975
 2805W        W 3802   5.453   2.644   4.223
 2806W        W 3803   3.707   1.731   7.446
 2807W        W 3804   4.641   0.832   4.653
 2808W        W 3805   2.385   2.815   7.083
 2809W        W 3806   1.796   7.496   0.951
 2810W        W 3807   7.297   4.839   4.492
 2811W        W 3808   5.885   2.144   1.156
 2812W        W 3809   7.584   6.276   1.574
 2813W        W 3810   2.254   3.860   6.311
 2814W        W 3811   5.687   3.382   2.159
 2815W        W 3812   4.016   6.331   0.237
 2816W        W 3813   5.477   1.529   4.653
 2817W        W 3814   4.801   5.121   1.656
 2818W        W 3815   3.910   0.086   4.446
 2819W        W 3816   6.373   4.905   7.174
 2820W        W 3817   1.493   0.848   2.986
 2821W        W 3818   2.774   5.314   6.002
 2822W        W 3819   7.739   7.456   0.833
 2823W        W 3820   0.761   0.940   5.366
 2824W        W 3821   0.982   3.436   3.674
 2825W        W 3822   3.916   3.835   3.337
 2826W        W 3823   6.796   2.900   6.122
 2827W        W 3824   6.432   6.538   1.062
 2828W        W 3825   0.220   1.001   5.359
 2829W        W 3826   0.941   3.356   0.176
 2830W        W 3827   4.850   1.182   3.539
 2831W        W 3828   3.463   1.956   2.433
 2832W        W 3829   4.635   5.937   0.069
 2833W        W 3830   4.674   3.536   2.702
 2834W        W 3831   0.630   6.261   1.041
 2835W        W 3832   5.158   3.024   3.637
 2836W        W 3833   3.817   5.864   3.572
 2837W        W 3834   2.049   2.758   4.720
 2838W        W 3835   2.636   7.239   3.517
 2839W        W 3836   0.722   6.187   4.321
 2840W        W 3837   7.444   6.524   6.521
 2841W        W 3838   2.121   2.068   2.654
 2842W        W 3839   2.067   6.578   5.473
 2843W        W 3840   7.135   2.193   3.270
 2844W        W 3841   2.512   7.486   5.134
 2845W        W 3842   0.387   2.810   1.919
 2846W        W 3843   7.310   4.114   7.364
 2847W        W 3844   5.206   1.422   7.569
 2848W        W 3845   6.324   0.187   4.276
 2849W        W 3846   4.173   2.329   6.114
 2850W        W 3847   6.491   6.887   2.316
 2851W        W 3848   7.849   5.118   0.833
 2852W        W 3849   2.445   7.618   5.628
 2853W        W 3850   4.318   3.264   4.015
 2854W        W 3851   6.852   3.196   4.480
 2855W        W 3852   6.506   5.397   6.891
 2856W        W 3853   7.929   3.969   3.127
 2857W        W 3854   2.589   0.126   4.024
 2858W        W 3855   3.821   6.636   1.848
 2859W        W 3856   7.194   2.185   2.763
 2860W        W 3857   0.609   2.654   3.781
 2861W        W 3858   5.449   3.143   4.019
 2862W        W 3859   5.207   5.080   7.280
 2863W        W 3860   3.690   2.010   3.009
 2864W        W 3861   2.337   2.456   4.426
 2865W        W 3862   4.266   5.567   3.487
 2866W        W 3863   7.176   4.189   5.776
 2867W        W 3864   2.282   7.631   6.474
 2868W        W 3865   6.912   6.537   1.504
 2869W        W 3866   3.824   4.257   4.527
 2870W        W 3867   4.083   6.909   0.739
 2871W        W 3868   6.551   6.337   3.385
 2872W        W 3869   6.007   2.740   4.951
 2873W        W 3870   7.035   2.623   3.040
 2874W        W 3871   7.060   0.992   6.108
 2875W        W 3872   2.876   2.267   4.482
 2876W        W 3873   7.997   7.211   6.058
 2877W        W 3874   4.297   1.238   7.592
 2878W        W 3875   5.536   1.543   0.854
 2879W        W 3876   7.716   4.618   6.419
 2880W        W 3877   1.534   6.012   6.275
 2881W        W 3878   0.617   3.578   1.046
 2882W        W 3879   5.772   2.082   7.512
 2883W        W 3880   3.922   3.847   5.160
 2884W        W 3881   6.164   0.806   7.529
 2885W        W 3882   6.859   6.702   3.503
 2886W        W 3883   4.176   1.545   6.597
 2887W        W 3884   3.814   1.110   4.758
 2888W        W 3885   7.371   1.735   2.626
 2889W        W 3886   2.099   4.948   1.359
 2890W        W 3887   1.979   2.925   5.196
 2891W        W 3888   3.567   2.859   4.372
 2892W        W 3889   4.035   6.915   6.663
 2893W        W 3890   0.837   1.481   6.899
 2894W        W 3891   4.079   2.097   6.622
 2895W        W 3892   3.885   4.587   3.527
 2896W        W 3893   1.239   6.828   0.948
 2897W        W 3894   5.523   0.151   3.237
 2898W        W 3895   3.007   3.151   4.463
 2899W        W 3896   2.301   0.606   3.159
 2900W        W 3897   2.064   7.514   6.003
 2901W        W 3898   0.317   2.426   7.364
 2902W        W 3899   6.683   3.322   2.064
 2903W        W 3900   4.895   6.566   0.445
 2904W        W 3901   4.180   1.537   4.027
 2905W        W 3902   0.468   0.338   3.131
 2906W        W 3903   1.134   0.975   3.303
 2907W        W 3904   2.335   1.946   4.406
 2908W        W 3905   3.106   0.945   3.996
 2909W        W 3906   6.253   7.750   4.413
 2910W        W 3907   6.458   6.458   7.333
 2911W        W 3908   1.186   5.948   7.210
 2912W        W 3909   4.648   5.509   2.021
 2913W        W 3910   1.514   2.009   6.748
 2914W        W 3911   5.649   6.180   1.642
 2915W        W 3912   5.439   6.812   5.209
 2916W        W 3913   0.477   4.680   7.818
 2917W        W 3914   0.556   5.789   2.392
 2918W        W 3915   6.272   7.621   7.019
 2919W        W 3916   4.463   2.393   4.383
 2920W        W 3917   2.908   0.750   2.849
 2921W        W 3918   6.942   4.132   2.518
 2922W        W 3919   6.941   1.260   5.189
 2923W        W 3920   0.193   4.663   2.090
 2924W        W 3921   6.306   3.879   4.150
 2925W        W 3922   4.621   4.786   3.974
 2926W        W 3923   7.592   0.064   3.783
 2927W        W 3924   5.298   5.955   6.066
 2928W        W 3925   1.740   0.626   7.870
 2929W        W 3926   6.875   7.217   4.084
 2930W        W 3927   2.720   4.298   5.305
 2931W        W 3928   0.961   5.005   7.124
 2932W        W 3929   7.381   6.703   1.307
 2933W        W 3930   6.790   0.918   3.051
 2934W        W 3931   7.971   4.394   3.352
 2935W        W 3932   7.875   5.553   3.502
 2936W        W 3933   7.847   5.814   1.770
 2937W        W 3934   4.836   0.853   6.407
 2938W        W 3935   1.339   0.179   6.485
 2939W        W 3936   3.147   5.745   5.887
 2940W        W 3937   1.844   2.214   4.828
 2941W        W 3938   3.966   4.713   7.561
 2942W        W 3939   3.231   0.502   3.725
 2943W        W 3940   3.846   1.435   2.737
 2944W        W 3941   1.681   2.878   2.678
 2945W        W 3942   3.556   5.427   6.785
 2946W        W 3943   7.958   3.791   7.836
 2947W        W 3944   1.492   4.113   0.441
 2948W        W 3945   5.346   3.719   1.866
 2949W        W 3946   6.950   4.984   4.108
 2950W        W 3947   2.957   1.383   7.034
 2951W        W 3948   6.548   6.166   1.709
 2952W        W 3949   0.735   3.389   2.605
 2953W        W 3950   6.677   0.579   0.207
 2954W        W 3951   7.471   6.588   2.948
 2955W        W 3952   6.740   5.774   6.680
 2956W        W 3953   7.347   5.199   5.365
 2957W        W 3954   6.027   5.222   5.402
 2958W        W 3955   0.199   4.902   2.766
 2959W        W 3956   0.103   1.926   5.540
 2960W        W 3957   3.458   1.292   6.421
 2961W        W 3958   4.924   7.144   5.798
 2962W        W 3959   1.753   3.227   0.841
 2963W        W 3960   0.011   0.347   6.489
 2964W        W 3961   5.957   1.783   5.860
 2965W        W 3962   4.403   5.594   6.848
 2966W        W 3963   0.038   1.318   7.673
 2967W        W 3964   1.552   3.619   4.057
 2968W        W 3965   3.051   6.778   6.892
 2969W        W 3966   1.999   6.453   4.619
 2970W        W 3967   4.345   6.035   1.101
 2971W        W 3968   5.342   1.582   2.248
 2972W        W 3969   7.672   7.282   0.382
 2973W        W 3970   1.700   0.416   3.184
 2974W        W 3971   2.213   7.194   0.983
 2975W        W 3972   6.255   0.468   0.821
 2976W        W 3973   6.146   2.516   3.667
 2977W        W 3974   5.005   1.973   5.732
 2978W        W 3975   0.570   4.590   2.863
 2979W        W 3976   3.708   5.585   0.030
 2980W        W 3977   5.793   5.722   6.116
 2981W        W 3978   7.382   5.652   7.936
 2982W        W 3979   4.357   3.115   6.390
 2983W        W 3980   1.294   7.133   2.618
 2984W        W 3981   7.555   5.064   6.251
 2985W        W 3982   5.725   3.392   1.641
 2986W        W 3983   6.843   6.020   6.234
 2987W        W 3984   3.298   2.570   5.788
 2988W        W 3985   7.351   1.161   3.073
 2989W        W 3986   6.690   1.098   1.598
 2990W        W 3987   3.062   3.244   3.540
 2991W        W 3988   0.854   0.066   3.326
 2992W        W 3989   0.322   1.238   0.690
 2993W        W 3990   0.511   5.687   3.208
 2994W        W 3991   1.297   7.142   5.489
 2995W        W 3992   7.395   1.030   4.715
 2996W        W 3993   7.669   7.724   6.275
 2997W        W 3994   0.802   6.497   3.760
 2998W        W 3995   6.560   6.379   6.363
 2999W        W 3996   6.456   0.607   3.388
 3000W        W 3997   3.737   2.173   6.263
 3001W        W 3998   7.161   5.829   5.822
 3002W        W 3999   3.023   0.525   4.222
 3003W        W 4000   0.586   1.288   5.096
 3004W        W 4001   7.395   2.613   2.506
 3005W        W 4002   3.579   7.078   5.626
 3006W        W 4003   3.610   6.196   1.519
 3007W        W 4004   0.269   3.535   4.534
 3008W        W 4005   7.734   4.078   4.226
 3009W        W 4006   2.917   0.717   1.827
 3010W        W 4007   7.936   0.045   3.374
 3011W        W 4008   1.687   7.264   1.384
 3012W        W 4009   6.117   7.001   4.924
 3013W        W 4010   4.820   1.380   1.488
 3014W        W 4011   5.654   5.918   6.928
 3015W        W 4012   3.329   4.732   1.585
 3016W        W 4013   5.061   1.881   6.200
 3017W        W 4014   6.287   3.901   7.209
 3018W        W 4015   5.218   7.600   6.861
 3019W        W 4016   6.414   6.968   6.282
 3020W        W 4017   6.056   3.713   0.443
 3021W        W 4018   2.456   2.126   3.058
 3022W        W 4019   4.299   4.938   0.303
 3023W        W 4020   4.535   3.129   1.100
 3024W        W 4021   6.696   7.099   4.926
 3025W        W 4022   4.431   3.785   3.552
 3026W        W 4023   5.945   4.666   5.380
 3027W        W 4024   3.115   7.387   7.729
 3028W        W 4025   1.918   2.978   6.992
 3029W        W 4026   5.071   7.037   0.369
 3030W        W 4027   2.879   2.641   1.273
 3031W        W 4028   5.584   6.238   2.162
 3032W        W 4029   3.604   3.791   1.787
 3033W        W 4030   5.474   0.937   0.396
 3034W        W 4031   4.891   3.539   4.947
 3035W        W 4032   4.135   7.007   5.707
 3036W        W 4033   2.626   5.089   2.396
 3037W        W 4034   4.911   2.512   5.450
 3038W        W 4035   5.991   7.197   0.743
 3039W        W 4036   2.566   3.027   0.228
 3040W        W 4037   1.639   2.667   7.350
 3041W        W 4038   1.709   2.541   5.395
 3042W        W 4039   6.757   7.780   4.432
 3043W        W 4040   1.482   4.089   7.696
 3044W        W 4041   7.366   2.889   4.010
 3045W        W 4042   0.833   4.579   5.175
 3046W        W 4043   0.157   5.371   4.594
 3047W        W 4044   7.425   1.828   6.828
 3048W        W 4045   5.314   5.322   3.530
 3049W        W 4046   3.620   1.601   1.189
 3050W        W 4047   6.544   4.202   4.525
 3051W        W 4048   6.049   3.731   6.692
 3052W        W 4049   7.040   2.248   7.471
 3053W        W 4050   2.837   2.853   1.729
 3054W        W 4051   5.157   2.816   2.233
 3055W        W 4052   1.168   2.728   7.465
 3056W        W 4053   2.291   0.105   0.592
 3057W        W 4054   5.155   7.009   2.498
 3058W        W 4055   5.591   5.385   7.412
 3059W        W 4056   0.816   2.248   7.328
 3060W        W 4057   5.689   2.749   3.395
 3061W        W 4058   0.989   7.181   5.893
 3062W        W 4059   6.030   7.377   6.199
 3063W        W 4060   4.826   7.426   5.397
 3064W        W 4061   3.940   7.340   2.486
 3065W        W 4062   1.952   6.073   6.014
 3066W        W 4063   3.271   4.436   5.319
 3067W        W 4064   5.992   7.705   1.618
 3068W        W 4065   4.055   2.844   4.184
 3069W        W 4066   3.107   4.155   6.390
 3070W        W 4067   4.697   4.268   4.767
 3071W        W 4068   7.077   2.092   3.833
 3072W        W 4069   4.392   3.644   4.943
 3073W        W 4070   7.484   5.038   0.358
 3074W        W 4071   2.018   1.156   6.546
 3075W        W 4072   6.581   4.574   5.619
 3076W        W 4073   0.141   1.204   3.687
 3077W        W 4074   6.267   2.332   7.882
 3078W        W 4075   1.967   3.374   7.300
 3079W        W 4076   2.384   6.654   7.205
 3080W        W 4077   3.565   6.423   2.238
 3081W        W 4078   4.917   6.443   7.328
 3082W        W 4079   0.673   7.302   0.692
 3083W        W 4080   7.359   0.249   4.208
 3084W        W 4081   6.546   1.892   0.675
 3085W        W 4082   1.656   6.815   3.614
 3086W        W 4083   2.814   5.380   0.765
 3087W        W 4084   1.911   3.441   6.744
 3088W        W 4085   3.941   3.366   5.051
 3089W        W 4086   6.840   0.130   1.750
 3090W        W 4087   7.356   0.399   6.885
 3091W        W 4088   3.847   1.849   3.887
 3092W        W 4089   2.627   0.199   2.204
 3093W        W 4090   7.965   4.383   6.936
 3094W        W 4091   4.598   7.895   6.204
 3095W        W 4092   5.238   3.845   6.036
 3096W        W 4093   6.237   5.294   4.611
 3097W        W 4094   6.464   1.507   1.426
 3098W        W 4095   0.529   2.351   0.221
 3099W        W 4096   3.222   3.049   1.437
 3100W        W 4097   1.870   4.466   4.112
 3101W        W 4098   2.052   2.898   0.179
 3102W        W 4099   4.787   4.708   5.009
 3103W        W 4100   0.199   2.664   2.385
 3104W        W 4101   2.388   2.894   3.322
 3105W        W 4102   4.762   3.283   6.702
 3106W        W 4103   0.011   6.640   2.133
 3107W        W 4104   0.424   4.086   2.870
 3108W        W 4105   4.348   6.071   2.605
 3109W        W 4106   7.746   4.835   3.349
 3110W        W 4107   2.374   0.800   3.608
 3111W        W 4108   0.866   5.105   7.626
 3112W        W 4109   4.329   6.924   2.543
 3113W        W 4110   6.581   2.494   1.553
 3114W        W 4111   4.731   5.343   5.846
 3115W        W 4112   0.201   6.891   4.609
 3116W        W 4113   7.460   3.734   4.470
 3117W        W 4114   2.260   6.919   2.093
 3118W        W 4115   1.655   6.398   5.748
 3119W        W 4116   4.495   2.886   6.830
 3120W        W 4117   7.342   1.875   1.439
 3121W        W 4118   6.106   5.019   0.801
 3122W        W 4119   5.124   1.674   4.270
 3123W        W 4120   2.340   2.748   1.443
 3124W        W 4121   0.754   7.033   5.499
 3125W        W 4122   7.116   3.414   2.333
 3126W        W 4123   3.506   3.556   3.897
 3127W        W 4124   4.222   5.349   7.994
 3128W        W 4125   2.484   0.855   1.479
 3129W        W 4126   2.493   0.891   5.441
 3130W        W 4127   1.995   1.598   5.111
 3131W        W 4128   7.211   6.690   6.082
 3132W        W 4129   7.024   6.258   6.679
 3133W        W 4130   6.236   3.846   4.679
 3134W        W 4131   0.298   7.556   0.935
 3135W        W 4132   4.997   7.370   2.187
 3136W        W 4133   3.320   5.956   4.833
 3137W        W 4134   5.463   5.398   0.493
 3138W        W 4135   6.219   6.928   7.135
 3139W        W 4136   6.839   7.016   2.689
 3140W        W 4137   7.820   0.238   1.153
 3141W        W 4138   0.391   1.970   7.560
 3142W        W 4139   0.704   3.334   5.832
 3143W        W 4140   0.265   3.825   1.387
 3144W        W 4141   6.967   3.881   2.949
 3145W        W 4142   7.328   3.863   2.312
 3146W        W 4143   3.482   7.576   5.630
 3147W        W 4144   4.550   0.363   7.039
 3148W        W 4145   0.932   1.406   5.423
 3149W        W 4146   2.476   6.900   6.206
 3150W        W 4147   6.257   4.506   7.463
 3151W        W 4148   6.836   0.740   3.996
 3152W        W 4149   1.736   3.761   4.586
 3153W        W 4150   5.838   1.012   6.843
 3154W        W 4151   0.253   3.344   5.539
 3155W        W 4152   5.395   5.350   4.708
 3156W        W 4153   2.838   6.456   7.571
 3157W        W 4154   7.641   0.391   2.676
 3158W        W 4155   0.761   4.388   6.603
 3159W        W 4156   2.032   4.469   1.172
 3160W        W 4157   5.249   6.548   4.832
 3161W        W 4158   0.823   2.017   2.145
 3162W        W 4159   6.092   0.274   1.284
 3163W        W 4160   2.240   0.195   2.898
 3164W        W 4161   2.090   6.952   1.632
 3165W        W 4162   3.458   7.616   0.611
 3166W        W 4163   6.345   4.669   4.617
 3167W        W 4164   5.119   0.728   4.881
 3168W        W 4165   3.309   3.119   2.635
 3169W        W 4166   2.782   0.521   3.309
 3170W        W 4167   7.962   3.768   6.359
 3171W        W 4168   0.510   7.646   1.389
 3172W        W 4169   0.082   3.144   2.636
 3173W        W 4170   6.795   1.871   3.414
 3174W        W 4171   5.071   3.741   6.542
 3175W        W 4172   2.142   2.488   6.770
 3176W        W 4173   1.977   7.542   3.071
 3177W        W 4174   7.326   6.667   3.432
 3178W        W 4175   7.477   0.812   1.332
 3179W        W 4176   1.671   5.985   4.610
 3180W        W 4177   1.716   3.265   0.226
 3181W        W 4178   6.862   1.258   6.570
 3182W        W 4179   3.182   2.071   6.049
 3183W        W 4180   4.315   4.419   0.137
 3184W        W 4181   7.057   2.002   0.095
 3185W        W 4182   4.712   3.321   3.477
 3186W        W 4183   3.079   5.876   1.077
 3187W        W 4184   6.110   6.320   6.552
 3188W        W 4185   3.480   3.995   5.478
 3189W        W 4186   0.999   3.896   0.369
 3190W        W 4187   1.253   6.368   6.075
 3191W        W 4188   7.290   4.529   1.008
 3192W        W 4189   0.824   3.061   4.860
 3193W        W 4190   4.312   5.065   4.226
 3194W        W 4191   2.550   3.855   5.265
 3195W        W 4192   2.838   2.910   7.734
 3196W        W 4193   4.730   5.030   2.123
 3197W        W 4194   5.302   4.533   3.096
 3198W        W 4195   5.460   7.517   2.475
 3199W        W 4196   5.535   5.510   2.482
 3200W        W 4197   5.425   1.206   4.254
 3201W        W 4198   7.820   1.633   1.681
 3202W        W 4199   1.015   7.828   1.460
 3203W        W 4200   1.355   5.842   7.738
 3204W        W 4201   5.179   2.493   0.708
 3205W        W 4202   4.732   0.192   6.578
 3206W        W 4203   6.118   1.947   1.675
   8.00000   8.00000   8.00000
