Martini system from ../2_Creating_coordinates/TYR-ARG-TYR_aa.pdb
 4240
    1TYR     BB    1   1.661   3.194   5.458
    1TYR    SC1    2   1.700   3.056   5.734
    1TYR    SC2    3   1.473   3.079   5.810
    1TYR    SC3    4   1.482   2.860   5.915
    2ARG     BB    5   1.345   2.987   5.443
    2ARG    SC1    6   1.270   3.107   5.149
    2ARG    SC2    7   1.047   3.185   4.854
    3TYR     BB    8   1.040   3.018   5.542
    3TYR    SC1    9   1.037   2.838   5.771
    3TYR    SC2   10   0.814   2.844   5.864
    3TYR    SC3   11   0.821   2.604   5.904
    1TYR     BB   12   6.396   3.832   0.501
    1TYR    SC1   13   6.107   3.793   0.609
    1TYR    SC2   14   6.100   3.553   0.588
    1TYR    SC3   15   5.975   3.536   0.795
    2ARG     BB   16   6.477   3.536   0.720
    2ARG    SC1   17   6.791   3.545   0.632
    2ARG    SC2   18   7.143   3.413   0.593
    3TYR     BB   19   6.471   3.215   0.693
    3TYR    SC1   20   6.234   3.149   0.849
    3TYR    SC2   21   6.208   2.910   0.844
    3TYR    SC3   22   6.143   2.908   1.078
    1TYR     BB   23   6.330   5.444   1.641
    1TYR    SC1   24   6.413   5.187   1.487
    1TYR    SC2   25   6.254   5.209   1.307
    1TYR    SC3   26   6.419   5.126   1.148
    2ARG     BB   27   6.326   5.602   1.298
    2ARG    SC1   28   6.240   5.892   1.422
    2ARG    SC2   29   6.108   6.245   1.415
    3TYR     BB   30   6.115   5.634   1.057
    3TYR    SC1   31   6.217   5.440   0.865
    3TYR    SC2   32   6.072   5.446   0.673
    3TYR    SC3   33   6.264   5.425   0.525
    1TYR     BB   34   4.562   2.357   7.895
    1TYR    SC1   35   4.818   2.205   7.987
    1TYR    SC2   36   4.706   2.011   8.074
    1TYR    SC3   37   4.883   1.867   7.990
    2ARG     BB   38   4.456   2.021   7.763
    2ARG    SC1   39   4.175   2.144   7.650
    2ARG    SC2   40   3.822   2.133   7.517
    3TYR     BB   41   4.304   1.761   7.878
    3TYR    SC1   42   4.525   1.574   7.910
    3TYR    SC2   43   4.435   1.369   7.997
    3TYR    SC3   44   4.583   1.240   7.853
    1TYR     BB   45   3.041   2.415   0.857
    1TYR    SC1   46   3.010   2.332   0.559
    1TYR    SC2   47   2.871   2.140   0.597
    1TYR    SC3   48   2.741   2.190   0.398
    2ARG     BB   49   2.671   2.345   0.876
    2ARG    SC1   50   2.663   2.427   1.192
    2ARG    SC2   51   2.519   2.444   1.541
    3TYR     BB   52   2.484   2.089   0.930
    3TYR    SC1   53   2.387   2.032   0.661
    3TYR    SC2   54   2.242   1.840   0.676
    3TYR    SC3   55   2.088   1.940   0.516
    1TYR     BB   56   4.939   1.637   2.136
    1TYR    SC1   57   4.686   1.457   2.115
    1TYR    SC2   58   4.658   1.420   2.351
    1TYR    SC3   59   4.416   1.433   2.327
    2ARG     BB   60   4.751   1.803   2.417
    2ARG    SC1   61   4.996   2.013   2.470
    2ARG    SC2   62   5.197   2.269   2.661
    3TYR     BB   63   4.714   1.756   2.734
    3TYR    SC1   64   4.445   1.644   2.744
    3TYR    SC2   65   4.393   1.600   2.975
    3TYR    SC3   66   4.166   1.679   2.942
    1TYR     BB   67   5.450   5.683   2.666
    1TYR    SC1   68   5.567   5.941   2.795
    1TYR    SC2   69   5.465   5.914   3.011
    1TYR    SC3   70   5.665   5.999   3.119
    2ARG     BB   71   5.543   5.522   2.994
    2ARG    SC1   72   5.432   5.232   2.895
    2ARG    SC2   73   5.314   4.876   2.933
    3TYR     BB   74   5.407   5.483   3.284
    3TYR    SC1   75   5.554   5.678   3.443
    3TYR    SC2   76   5.469   5.667   3.667
    3TYR    SC3   77   5.693   5.692   3.757
    1TYR     BB   78   7.503   7.055   6.395
    1TYR    SC1   79   7.643   7.329   6.347
    1TYR    SC2   80   7.528   7.451   6.520
    1TYR    SC3   81   7.731   7.573   6.573
    2ARG     BB   82   7.561   7.132   6.759
    2ARG    SC1   83   7.422   6.851   6.850
    2ARG    SC2   84   7.262   6.607   7.089
    3TYR     BB   85   7.407   7.292   6.993
    3TYR    SC1   86   7.568   7.535   7.011
    3TYR    SC2   87   7.471   7.673   7.182
    3TYR    SC3   88   7.692   7.736   7.262
    1TYR     BB   89   4.024   7.481   0.418
    1TYR    SC1   90   3.921   7.204   0.517
    1TYR    SC2   91   4.070   7.069   0.384
    1TYR    SC3   92   4.095   6.911   0.567
    2ARG     BB   93   4.365   7.327   0.462
    2ARG    SC1   94   4.512   7.602   0.364
    2ARG    SC2   95   4.796   7.817   0.239
    3TYR     BB   96   4.567   7.149   0.284
    3TYR    SC1   97   4.535   6.887   0.408
    3TYR    SC2   98   4.678   6.733   0.290
    3TYR    SC3   99   4.740   6.626   0.499
    1TYR     BB  100   4.171   7.178   7.226
    1TYR    SC1  101   4.436   7.041   7.314
    1TYR    SC2  102   4.473   6.917   7.111
    1TYR    SC3  103   4.712   6.957   7.127
    2ARG     BB  104   4.353   7.235   6.901
    2ARG    SC1  105   4.095   7.387   6.772
    2ARG    SC2  106   3.880   7.532   6.497
    3TYR     BB  107   4.401   7.071   6.627
    3TYR    SC1  108   4.678   6.985   6.660
    3TYR    SC2  109   4.738   6.858   6.465
    3TYR    SC3  110   4.958   6.961   6.462
    1TYR     BB  111   1.739   4.136   6.905
    1TYR    SC1  112   1.770   3.937   7.142
    1TYR    SC2  113   1.676   3.745   7.031
    1TYR    SC3  114   1.838   3.600   7.138
    2ARG     BB  115   1.869   3.850   6.697
    2ARG    SC1  116   1.852   4.028   6.424
    2ARG    SC2  117   1.845   4.090   6.052
    3TYR     BB  118   1.744   3.594   6.546
    3TYR    SC1  119   1.822   3.378   6.725
    3TYR    SC2  120   1.738   3.172   6.632
    3TYR    SC3  121   1.943   3.057   6.694
    1TYR     BB  122   4.450   2.490   6.082
    1TYR    SC1  123   4.700   2.316   6.020
    1TYR    SC2  124   4.738   2.239   6.244
    1TYR    SC3  125   4.802   2.020   6.162
    2ARG     BB  126   4.344   2.194   6.291
    2ARG    SC1  127   4.067   2.343   6.379
    2ARG    SC2  128   3.756   2.402   6.585
    3TYR     BB  129   4.392   2.091   6.593
    3TYR    SC1  130   4.582   1.874   6.549
    3TYR    SC2  131   4.634   1.779   6.764
    3TYR    SC3  132   4.632   1.556   6.669
    1TYR     BB  133   6.439   7.690   6.153
    1TYR    SC1  134   6.505   7.426   6.305
    1TYR    SC2  135   6.603   7.529   6.499
    1TYR    SC3  136   6.502   7.362   6.643
    2ARG     BB  137   6.318   7.809   6.490
    2ARG    SC1  138   6.234   8.100   6.367
    2ARG    SC2  139   6.138   8.464   6.377
    3TYR     BB  140   6.448   7.949   6.749
    3TYR    SC1  141   6.458   7.725   6.936
    3TYR    SC2  142   6.554   7.806   7.141
    3TYR    SC3  143   6.396   7.674   7.270
    1TYR     BB  144   0.886   6.421   7.077
    1TYR    SC1  145   0.747   6.543   6.827
    1TYR    SC2  146   0.718   6.336   6.707
    1TYR    SC3  147   0.500   6.409   6.627
    2ARG     BB  148   0.619   6.156   7.050
    2ARG    SC1  149   0.735   5.999   7.312
    2ARG    SC2  150   0.779   5.709   7.549
    3TYR     BB  151   0.580   5.878   6.892
    3TYR    SC1  152   0.393   5.957   6.683
    3TYR    SC2  153   0.347   5.762   6.549
    3TYR    SC3  154   0.113   5.824   6.533
    1TYR     BB  155   6.992   0.641   7.372
    1TYR    SC1  156   7.145   0.370   7.376
    1TYR    SC2  157   7.136   0.328   7.139
    1TYR    SC3  158   7.361   0.237   7.143
    2ARG     BB  159   7.208   0.716   7.073
    2ARG    SC1  160   7.073   1.010   7.037
    2ARG    SC2  161   6.985   1.331   6.858
    3TYR     BB  162   7.196   0.663   6.756
    3TYR    SC1  163   7.390   0.448   6.726
    3TYR    SC2  164   7.399   0.390   6.492
    3TYR    SC3  165   7.640   0.364   6.505
    1TYR     BB  166   6.427   1.803   5.352
    1TYR    SC1  167   6.169   1.949   5.258
    1TYR    SC2  168   6.271   2.077   5.082
    1TYR    SC3  169   6.075   2.046   4.942
    2ARG     BB  170   6.490   1.757   4.983
    2ARG    SC1  171   6.768   1.595   5.041
    2ARG    SC2  172   7.104   1.446   4.958
    3TYR     BB  173   6.628   1.925   4.746
    3TYR    SC1  174   6.395   2.021   4.600
    3TYR    SC2  175   6.474   2.153   4.415
    3TYR    SC3  176   6.303   2.059   4.271
    1TYR     BB  177   3.315   7.451   6.055
    1TYR    SC1  178   3.343   7.583   5.775
    1TYR    SC2  179   3.575   7.645   5.795
    1TYR    SC3  180   3.613   7.591   5.561
    2ARG     BB  181   3.648   7.294   5.971
    2ARG    SC1  182   3.655   7.135   6.256
    2ARG    SC2  183   3.812   6.941   6.540
    3TYR     BB  184   3.959   7.374   6.000
    3TYR    SC1  185   4.026   7.442   5.724
    3TYR    SC2  186   4.258   7.507   5.720
    3TYR    SC3  187   4.290   7.389   5.510
    1TYR     BB  188   0.322   6.716   3.911
    1TYR    SC1  189   0.570   6.645   3.738
    1TYR    SC2  190   0.669   6.488   3.891
    1TYR    SC3  191   0.738   6.346   3.707
    2ARG     BB  192   0.304   6.344   3.970
    2ARG    SC1  193   0.039   6.377   4.159
    2ARG    SC2  194  -0.220   6.272   4.412
    3TYR     BB  195   0.433   6.133   4.177
    3TYR    SC1  196   0.632   6.003   4.009
    3TYR    SC2  197   0.744   5.838   4.143
    3TYR    SC3  198   0.747   5.683   3.956
    1TYR     BB  199   6.582   3.347   3.012
    1TYR    SC1  200   6.704   3.581   2.847
    1TYR    SC2  201   6.520   3.609   2.695
    1TYR    SC3  202   6.549   3.850   2.698
    2ARG     BB  203   6.267   3.555   3.000
    2ARG    SC1  204   6.103   3.333   3.174
    2ARG    SC2  205   5.798   3.161   3.315
    3TYR     BB  206   6.018   3.591   2.798
    3TYR    SC1  207   6.081   3.848   2.675
    3TYR    SC2  208   5.906   3.898   2.518
    3TYR    SC3  209   5.909   4.132   2.584
    1TYR     BB  210   7.653   0.053   3.758
    1TYR    SC1  211   7.633  -0.120   4.016
    1TYR    SC2  212   7.762   0.026   4.158
    1TYR    SC3  213   7.614  -0.021   4.345
    2ARG     BB  214   7.581   0.341   3.991
    2ARG    SC1  215   7.592   0.555   3.745
    2ARG    SC2  216   7.617   0.895   3.585
    3TYR     BB  217   7.751   0.538   4.180
    3TYR    SC1  218   7.692   0.430   4.444
    3TYR    SC2  219   7.810   0.563   4.606
    3TYR    SC3  220   7.620   0.555   4.756
    1TYR     BB  221   3.417   0.791   4.711
    1TYR    SC1  222   3.132   0.895   4.783
    1TYR    SC2  223   3.182   1.130   4.763
    1TYR    SC3  224   2.963   1.170   4.664
    2ARG     BB  225   3.402   1.051   4.438
    2ARG    SC1  226   3.700   0.969   4.331
    2ARG    SC2  227   4.022   1.013   4.141
    3TYR     BB  228   3.470   1.365   4.409
    3TYR    SC1  229   3.203   1.481   4.407
    3TYR    SC2  230   3.228   1.719   4.386
    3TYR    SC3  231   3.038   1.729   4.235
    1TYR     BB  232   3.257   4.488   6.375
    1TYR    SC1  233   3.472   4.439   6.595
    1TYR    SC2  234   3.491   4.201   6.565
    1TYR    SC3  235   3.731   4.212   6.602
    2ARG     BB  236   3.470   4.255   6.169
    2ARG    SC1  237   3.268   4.281   5.914
    2ARG    SC2  238   3.116   4.186   5.582
    3TYR     BB  239   3.494   3.936   6.126
    3TYR    SC1  240   3.737   3.877   6.275
    3TYR    SC2  241   3.777   3.640   6.257
    3TYR    SC3  242   4.016   3.679   6.233
    1TYR     BB  243   1.738   0.545   3.931
    1TYR    SC1  244   1.825   0.841   3.969
    1TYR    SC2  245   1.631   0.912   4.093
    1TYR    SC3  246   1.769   1.053   4.234
    2ARG     BB  247   1.638   0.567   4.294
    2ARG    SC1  248   1.537   0.257   4.295
    2ARG    SC2  249   1.354  -0.047   4.425
    3TYR     BB  250   1.379   0.660   4.461
    3TYR    SC1  251   1.467   0.917   4.565
    3TYR    SC2  252   1.286   1.008   4.695
    3TYR    SC3  253   1.443   1.089   4.862
    1TYR     BB  254   3.034   6.751   3.040
    1TYR    SC1  255   3.176   6.862   2.786
    1TYR    SC2  256   3.384   6.744   2.815
    1TYR    SC3  257   3.401   6.708   2.576
    2ARG     BB  258   3.178   6.421   2.930
    2ARG    SC1  259   3.043   6.267   3.184
    2ARG    SC2  260   2.992   5.985   3.430
    3TYR     BB  261   3.454   6.260   2.970
    3TYR    SC1  262   3.580   6.296   2.710
    3TYR    SC2  263   3.792   6.183   2.716
    3TYR    SC3  264   3.759   6.103   2.489
    1TYR     BB  265   3.759   4.442   3.329
    1TYR    SC1  266   3.605   4.179   3.393
    1TYR    SC2  267   3.386   4.258   3.330
    1TYR    SC3  268   3.332   4.041   3.236
    2ARG     BB  269   3.549   4.443   3.016
    2ARG    SC1  270   3.689   4.719   2.911
    2ARG    SC2  271   3.725   5.031   2.702
    3TYR     BB  272   3.258   4.551   2.929
    3TYR    SC1  273   3.106   4.302   2.919
    3TYR    SC2  274   2.881   4.357   2.855
    3TYR    SC3  275   2.869   4.161   2.713
    1TYR     BB  276   5.456   0.223   2.743
    1TYR    SC1  277   5.617   0.489   2.750
    1TYR    SC2  278   5.529   0.571   2.958
    1TYR    SC3  279   5.746   0.661   3.019
    2ARG     BB  280   5.550   0.201   3.108
    2ARG    SC1  281   5.392  -0.082   3.141
    2ARG    SC2  282   5.227  -0.366   3.328
    3TYR     BB  283   5.431   0.309   3.388
    3TYR    SC1  284   5.616   0.526   3.448
    3TYR    SC2  285   5.547   0.624   3.657
    3TYR    SC3  286   5.778   0.647   3.726
    1TYR     BB  287   4.781   2.934   1.866
    1TYR    SC1  288   4.482   3.021   1.862
    1TYR    SC2  289   4.521   3.257   1.895
    1TYR    SC3  290   4.340   3.310   1.742
    2ARG     BB  291   4.832   3.235   1.645
    2ARG    SC1  292   5.152   3.177   1.623
    2ARG    SC2  293   5.514   3.256   1.548
    3TYR     BB  294   4.886   3.551   1.687
    3TYR    SC1  295   4.625   3.662   1.621
    3TYR    SC2  296   4.639   3.901   1.645
    3TYR    SC3  297   4.504   3.933   1.447
    1TYR     BB  298   5.406   4.185   3.954
    1TYR    SC1  299   5.562   4.006   3.754
    1TYR    SC2  300   5.371   3.891   3.663
    1TYR    SC3  301   5.471   3.895   3.441
    2ARG     BB  302   5.169   4.236   3.665
    2ARG    SC1  303   4.979   4.432   3.843
    2ARG    SC2  304   4.665   4.624   3.930
    3TYR     BB  305   4.912   4.085   3.543
    3TYR    SC1  306   5.027   3.959   3.307
    3TYR    SC2  307   4.851   3.837   3.196
    3TYR    SC3  308   4.934   3.907   2.979
    1TYR     BB  309   5.146   2.066   3.600
    1TYR    SC1  310   5.332   2.234   3.785
    1TYR    SC2  311   5.254   2.143   3.994
    1TYR    SC3  312   5.479   2.147   4.084
    2ARG     BB  313   5.241   1.780   3.826
    2ARG    SC1  314   5.057   1.572   3.656
    2ARG    SC2  315   4.868   1.252   3.590
    3TYR     BB  316   5.136   1.656   4.105
    3TYR    SC1  317   5.341   1.749   4.290
    3TYR    SC2  318   5.284   1.668   4.509
    3TYR    SC3  319   5.517   1.620   4.556
    1TYR     BB  320   2.116   7.089   4.518
    1TYR    SC1  321   1.951   6.874   4.364
    1TYR    SC2  322   1.911   7.006   4.167
    1TYR    SC3  323   1.938   6.809   4.027
    2ARG     BB  324   2.286   7.142   4.186
    2ARG    SC1  325   2.480   7.372   4.312
    2ARG    SC2  326   2.720   7.663   4.305
    3TYR     BB  327   2.236   7.318   3.922
    3TYR    SC1  328   2.139   7.116   3.736
    3TYR    SC2  329   2.093   7.226   3.526
    3TYR    SC3  330   2.185   7.038   3.404
    1TYR     BB  331   7.722   4.989   0.009
    1TYR    SC1  332   7.765   5.032   0.314
    1TYR    SC2  333   7.543   4.972   0.384
    1TYR    SC3  334   7.631   4.861   0.581
    2ARG     BB  335   7.545   4.674   0.117
    2ARG    SC1  336   7.480   4.593  -0.193
    2ARG    SC2  337   7.308   4.408  -0.473
    3TYR     BB  338   7.246   4.592   0.208
    3TYR    SC1  339   7.281   4.561   0.495
    3TYR    SC2  340   7.067   4.498   0.588
    3TYR    SC3  341   7.175   4.341   0.738
    1TYR     BB  342   3.615   3.935   1.027
    1TYR    SC1  343   3.342   4.083   1.039
    1TYR    SC2  344   3.211   3.895   1.114
    1TYR    SC3  345   3.079   4.040   1.257
    2ARG     BB  346   3.510   3.791   1.359
    2ARG    SC1  347   3.787   3.621   1.384
    2ARG    SC2  348   4.018   3.355   1.519
    3TYR     BB  349   3.337   3.539   1.461
    3TYR    SC1  350   3.089   3.668   1.543
    3TYR    SC2  351   2.941   3.496   1.624
    3TYR    SC3  352   2.866   3.641   1.804
    1TYR     BB  353   5.430   3.274   6.792
    1TYR    SC1  354   5.309   3.497   6.612
    1TYR    SC2  355   5.392   3.412   6.402
    1TYR    SC3  356   5.186   3.476   6.291
    2ARG     BB  357   5.306   3.041   6.523
    2ARG    SC1  358   5.419   2.780   6.684
    2ARG    SC2  359   5.525   2.421   6.727
    3TYR     BB  360   5.417   2.925   6.243
    3TYR    SC1  361   5.262   3.081   6.052
    3TYR    SC2  362   5.329   3.011   5.831
    3TYR    SC3  363   5.099   3.021   5.755
    1TYR     BB  364   2.414   6.414   6.873
    1TYR    SC1  365   2.190   6.241   6.744
    1TYR    SC2  366   2.155   6.380   6.550
    1TYR    SC3  367   2.122   6.183   6.411
    2ARG     BB  368   2.550   6.433   6.522
    2ARG    SC1  369   2.802   6.616   6.620
    2ARG    SC2  370   3.095   6.850   6.579
    3TYR     BB  371   2.506   6.620   6.263
    3TYR    SC1  372   2.347   6.444   6.093
    3TYR    SC2  373   2.300   6.564   5.889
    3TYR    SC3  374   2.335   6.362   5.759
    1TYR     BB  375   0.666   2.853   2.911
    1TYR    SC1  376   0.798   2.876   2.630
    1TYR    SC2  377   0.882   2.650   2.620
    1TYR    SC3  378   0.829   2.638   2.383
    2ARG     BB  379   0.541   2.521   2.784
    2ARG    SC1  380   0.387   2.461   3.065
    2ARG    SC2  381   0.212   2.251   3.326
    3TYR     BB  382   0.651   2.218   2.772
    3TYR    SC1  383   0.722   2.195   2.490
    3TYR    SC2  384   0.809   1.973   2.456
    3TYR    SC3  385   0.692   1.957   2.243
    1TYR     BB  386   6.365   4.315   6.273
    1TYR    SC1  387   6.552   4.488   6.452
    1TYR    SC2  388   6.389   4.540   6.621
    1TYR    SC3  389   6.559   4.520   6.794
    2ARG     BB  390   6.254   4.164   6.600
    2ARG    SC1  391   6.046   3.963   6.448
    2ARG    SC2  392   5.755   3.725   6.419
    3TYR     BB  393   6.035   4.230   6.827
    3TYR    SC1  394   6.204   4.337   7.039
    3TYR    SC2  395   6.060   4.396   7.223
    3TYR    SC3  396   6.223   4.310   7.382
    1TYR     BB  397   3.437   4.910   3.973
    1TYR    SC1  398   3.203   4.984   3.783
    1TYR    SC2  399   3.043   4.828   3.872
    1TYR    SC3  400   2.864   4.990   3.844
    2ARG     BB  401   3.171   4.914   4.241
    2ARG    SC1  402   3.389   4.839   4.472
    2ARG    SC2  403   3.507   4.720   4.810
    3TYR     BB  404   2.958   4.706   4.363
    3TYR    SC1  405   2.710   4.802   4.244
    3TYR    SC2  406   2.532   4.659   4.322
    3TYR    SC3  407   2.385   4.851   4.347
    1TYR     BB  408   4.710   5.188   5.165
    1TYR    SC1  409   4.897   5.432   5.113
    1TYR    SC2  410   4.930   5.393   4.877
    1TYR    SC3  411   4.923   5.632   4.834
    2ARG     BB  412   4.543   5.296   4.844
    2ARG    SC1  413   4.327   5.053   4.864
    2ARG    SC2  414   4.062   4.815   4.739
    3TYR     BB  415   4.584   5.244   4.529
    3TYR    SC1  416   4.703   5.496   4.444
    3TYR    SC2  417   4.743   5.481   4.207
    3TYR    SC3  418   4.671   5.711   4.177
    1TYR     BB  419   6.433   3.385   5.601
    1TYR    SC1  420   6.598   3.493   5.842
    1TYR    SC2  421   6.495   3.356   6.011
    1TYR    SC3  422   6.709   3.329   6.123
    2ARG     BB  423   6.500   3.048   5.756
    2ARG    SC1  424   6.336   2.896   5.518
    2ARG    SC2  425   6.154   2.610   5.352
    3TYR     BB  426   6.363   2.861   5.980
    3TYR    SC1  427   6.546   2.897   6.204
    3TYR    SC2  428   6.463   2.765   6.387
    3TYR    SC3  429   6.689   2.698   6.445
    1TYR     BB  430   1.615   7.304   2.115
    1TYR    SC1  431   1.732   7.546   2.270
    1TYR    SC2  432   1.643   7.488   2.486
    1TYR    SC3  433   1.847   7.565   2.594
    2ARG     BB  434   1.730   7.105   2.413
    2ARG    SC1  435   1.621   6.827   2.282
    2ARG    SC2  436   1.513   6.465   2.279
    3TYR     BB  437   1.611   7.024   2.702
    3TYR    SC1  438   1.762   7.201   2.877
    3TYR    SC2  439   1.689   7.159   3.103
    3TYR    SC3  440   1.917   7.178   3.184
    1TYR     BB  441   3.064   6.066   8.110
    1TYR    SC1  442   3.154   5.961   7.831
    1TYR    SC2  443   2.943   5.866   7.766
    1TYR    SC3  444   2.976   5.939   7.537
    2ARG     BB  445   2.757   6.182   7.925
    2ARG    SC1  446   2.628   6.307   8.198
    2ARG    SC2  447   2.356   6.446   8.419
    3TYR     BB  448   2.472   6.057   7.840
    3TYR    SC1  449   2.513   6.011   7.555
    3TYR    SC2  450   2.310   5.915   7.467
    3TYR    SC3  451   2.331   6.049   7.266
    1TYR     BB  452   6.634   3.880   2.040
    1TYR    SC1  453   6.720   3.652   1.845
    1TYR    SC2  454   6.570   3.710   1.666
    1TYR    SC3  455   6.740   3.654   1.502
    2ARG     BB  456   6.649   4.097   1.732
    2ARG    SC1  457   6.562   4.361   1.902
    2ARG    SC2  458   6.437   4.713   1.954
    3TYR     BB  459   6.449   4.177   1.492
    3TYR    SC1  460   6.556   4.018   1.272
    3TYR    SC2  461   6.421   4.062   1.078
    3TYR    SC3  462   6.618   4.063   0.937
    1TYR     BB  463   7.049   5.532   2.910
    1TYR    SC1  464   7.162   5.438   3.185
    1TYR    SC2  465   7.349   5.590   3.192
    1TYR    SC3  466   7.319   5.620   3.431
    2ARG     BB  467   7.115   5.878   3.045
    2ARG    SC1  468   7.001   6.016   2.771
    2ARG    SC2  469   6.947   6.293   2.521
    3TYR     BB  470   7.363   6.084   3.053
    3TYR    SC1  471   7.447   6.060   3.331
    3TYR    SC2  472   7.635   6.207   3.363
    3TYR    SC3  473   7.551   6.273   3.581
    1TYR     BB  474   4.590   6.365   4.019
    1TYR    SC1  475   4.286   6.428   4.031
    1TYR    SC2  476   4.249   6.349   4.256
    1TYR    SC3  477   4.094   6.531   4.297
    2ARG     BB  478   4.596   6.514   4.365
    2ARG    SC1  479   4.918   6.467   4.391
    2ARG    SC2  480   5.250   6.436   4.568
    3TYR     BB  481   4.550   6.410   4.667
    3TYR    SC1  482   4.286   6.518   4.725
    3TYR    SC2  483   4.228   6.452   4.949
    3TYR    SC3  484   4.129   6.670   4.991
    1TYR     BB  485   0.762   7.823   1.035
    1TYR    SC1  486   0.695   7.935   0.752
    1TYR    SC2  487   0.534   7.767   0.692
    1TYR    SC3  488   0.397   7.934   0.580
    2ARG     BB  489   0.388   7.781   1.064
    2ARG    SC1  490   0.416   7.660   1.366
    2ARG    SC2  491   0.304   7.478   1.677
    3TYR     BB  492   0.171   7.556   0.986
    3TYR    SC1  493   0.046   7.676   0.752
    3TYR    SC2  494  -0.124   7.524   0.674
    3TYR    SC3  495  -0.273   7.709   0.626
    1TYR     BB  496   5.090   4.469  -0.054
    1TYR    SC1  497   5.187   4.178  -0.003
    1TYR    SC2  498   5.016   4.117   0.155
    1TYR    SC3  499   5.005   3.893   0.061
    2ARG     BB  500   4.748   4.311  -0.070
    2ARG    SC1  501   4.607   4.600  -0.127
    2ARG    SC2  502   4.322   4.846  -0.151
    3TYR     BB  503   4.516   4.231   0.139
    3TYR    SC1  504   4.548   3.942   0.152
    3TYR    SC2  505   4.382   3.857   0.305
    3TYR    SC3  506   4.341   3.667   0.160
    1TYR     BB  507   6.377  -0.185   3.726
    1TYR    SC1  508   6.137  -0.325   3.866
    1TYR    SC2  509   6.136  -0.189   4.065
    1TYR    SC3  510   5.893  -0.191   4.069
    2ARG     BB  511   6.208   0.133   3.839
    2ARG    SC1  512   6.441   0.317   3.703
    2ARG    SC2  513   6.642   0.630   3.640
    3TYR     BB  514   6.208   0.318   4.103
    3TYR    SC1  515   5.950   0.249   4.221
    3TYR    SC2  516   5.927   0.376   4.424
    3TYR    SC3  517   5.692   0.416   4.375
    1TYR     BB  518   2.928   6.116   1.333
    1TYR    SC1  519   3.115   6.195   1.569
    1TYR    SC2  520   3.307   6.254   1.435
    1TYR    SC3  521   3.357   6.439   1.584
    2ARG     BB  522   3.062   6.429   1.172
    2ARG    SC1  523   2.879   6.382   0.906
    2ARG    SC2  524   2.770   6.431   0.548
    3TYR     BB  525   3.316   6.510   0.991
    3TYR    SC1  526   3.483   6.650   1.185
    3TYR    SC2  527   3.683   6.721   1.071
    3TYR    SC3  528   3.679   6.933   1.190
    1TYR     BB  529   1.809   0.746   6.886
    1TYR    SC1  530   1.869   0.951   7.111
    1TYR    SC2  531   1.657   0.933   7.224
    1TYR    SC3  532   1.766   0.953   7.440
    2ARG     BB  533   1.665   0.538   7.165
    2ARG    SC1  534   1.587   0.297   6.959
    2ARG    SC2  535   1.412  -0.017   6.845
    3TYR     BB  536   1.381   0.511   7.315
    3TYR    SC1  537   1.437   0.645   7.568
    3TYR    SC2  538   1.235   0.638   7.700
    3TYR    SC3  539   1.365   0.594   7.900
    1TYR     BB  540   3.121   5.185   5.814
    1TYR    SC1  541   3.015   5.471   5.873
    1TYR    SC2  542   3.057   5.469   6.110
    1TYR    SC3  543   3.124   5.702   6.104
    2ARG     BB  544   3.404   5.283   6.042
    2ARG    SC1  545   3.549   4.993   6.004
    2ARG    SC2  546   3.787   4.712   6.086
    3TYR     BB  547   3.462   5.278   6.359
    3TYR    SC1  548   3.432   5.560   6.427
    3TYR    SC2  549   3.471   5.582   6.664
    3TYR    SC3  550   3.594   5.789   6.627
    1TYR     BB  551   7.301   8.394   0.948
    1TYR    SC1  552   7.467   8.413   1.211
    1TYR    SC2  553   7.316   8.287   1.350
    1TYR    SC3  554   7.503   8.183   1.464
    2ARG     BB  555   7.257   8.033   1.047
    2ARG    SC1  556   7.078   7.972   0.780
    2ARG    SC2  557   6.840   7.779   0.561
    3TYR     BB  558   7.054   7.862   1.230
    3TYR    SC1  559   7.219   7.810   1.465
    3TYR    SC2  560   7.087   7.682   1.619
    3TYR    SC3  561   7.279   7.545   1.675
    1TYR     BB  562   4.286   1.213   5.454
    1TYR    SC1  563   4.360   0.911   5.475
    1TYR    SC2  564   4.599   0.940   5.468
    1TYR    SC3  565   4.628   0.762   5.631
    2ARG     BB  566   4.562   1.259   5.706
    2ARG    SC1  567   4.513   1.582   5.713
    2ARG    SC2  568   4.597   1.942   5.787
    3TYR     BB  569   4.882   1.301   5.699
    3TYR    SC1  570   4.975   1.038   5.783
    3TYR    SC2  571   5.216   1.044   5.785
    3TYR    SC3  572   5.220   0.913   5.990
    1TYR     BB  573   1.639   6.126   0.657
    1TYR    SC1  574   1.668   6.434   0.689
    1TYR    SC2  575   1.684   6.436   0.929
    1TYR    SC3  576   1.849   6.614   0.920
    2ARG     BB  577   1.916   6.111   0.911
    2ARG    SC1  578   1.918   5.785   0.904
    2ARG    SC2  579   1.999   5.437   1.026
    3TYR     BB  580   1.940   6.111   1.233
    3TYR    SC1  581   2.033   6.383   1.283
    3TYR    SC2  582   2.059   6.408   1.521
    3TYR    SC3  583   2.263   6.535   1.489
    1TYR     BB  584   6.555   2.747   2.483
    1TYR    SC1  585   6.312   2.827   2.661
    1TYR    SC2  586   6.157   2.666   2.571
    1TYR    SC3  587   6.063   2.629   2.792
    2ARG     BB  588   6.450   2.394   2.563
    2ARG    SC1  589   6.695   2.271   2.385
    2ARG    SC2  590   6.885   2.006   2.197
    3TYR     BB  591   6.244   2.177   2.442
    3TYR    SC1  592   6.029   2.187   2.639
    3TYR    SC2  593   5.860   2.031   2.569
    3TYR    SC3  594   5.825   1.961   2.799
    1TYR     BB  595   7.432   5.911   5.880
    1TYR    SC1  596   7.175   5.991   6.037
    1TYR    SC2  597   7.025   5.841   5.924
    1TYR    SC3  598   6.907   5.797   6.132
    2ARG     BB  599   7.307   5.559   5.932
    2ARG    SC1  600   7.565   5.434   5.774
    2ARG    SC2  601   7.765   5.171   5.593
    3TYR     BB  602   7.108   5.356   5.780
    3TYR    SC1  603   6.874   5.365   5.954
    3TYR    SC2  604   6.708   5.219   5.859
    3TYR    SC3  605   6.647   5.140   6.081
    1TYR     BB  606   0.826   4.829  -0.276
    1TYR    SC1  607   0.878   4.736   0.017
    1TYR    SC2  608   0.980   4.940   0.094
    1TYR    SC3  609   0.869   4.917   0.309
    2ARG     BB  610   0.709   5.149  -0.113
    2ARG    SC1  611   0.640   5.282  -0.402
    2ARG    SC2  612   0.562   5.561  -0.644
    3TYR     BB  613   0.844   5.423  -0.010
    3TYR    SC1  614   0.842   5.383   0.278
    3TYR    SC2  615   0.940   5.579   0.379
    3TYR    SC3  616   0.775   5.574   0.557
    1TYR     BB  617   6.939   6.679   4.497
    1TYR    SC1  618   6.848   6.622   4.205
    1TYR    SC2  619   6.951   6.815   4.105
    1TYR    SC3  620   7.011   6.685   3.909
    2ARG     BB  621   7.271   6.759   4.338
    2ARG    SC1  622   7.405   6.826   4.628
    2ARG    SC2  623   7.662   6.968   4.865
    3TYR     BB  624   7.412   7.017   4.206
    3TYR    SC1  625   7.396   6.952   3.922
    3TYR    SC2  626   7.496   7.134   3.800
    3TYR    SC3  627   7.601   6.977   3.647
    1TYR     BB  628   2.634   1.587   5.427
    1TYR    SC1  629   2.466   1.758   5.228
    1TYR    SC2  630   2.376   1.575   5.101
    1TYR    SC3  631   2.163   1.689   5.082
    2ARG     BB  632   2.326   1.371   5.441
    2ARG    SC1  633   2.468   1.167   5.654
    2ARG    SC2  634   2.511   0.847   5.849
    3TYR     BB  635   2.205   1.123   5.274
    3TYR    SC1  636   1.993   1.255   5.124
    3TYR    SC2  637   1.885   1.087   4.988
    3TYR    SC3  638   1.668   1.185   5.034
    1TYR     BB  639   1.414   1.918   3.116
    1TYR    SC1  640   1.498   2.148   2.924
    1TYR    SC2  641   1.717   2.184   3.016
    1TYR    SC3  642   1.808   2.224   2.794
    2ARG     BB  643   1.763   1.789   3.051
    2ARG    SC1  644   1.713   1.530   3.244
    2ARG    SC2  645   1.810   1.233   3.455
    3TYR     BB  646   2.057   1.834   3.175
    3TYR    SC1  647   2.180   2.001   2.970
    3TYR    SC2  648   2.405   2.049   3.042
    3TYR    SC3  649   2.486   2.022   2.814
    1TYR     BB  650   5.794   7.218   2.101
    1TYR    SC1  651   5.509   7.232   2.224
    1TYR    SC2  652   5.431   7.419   2.094
    1TYR    SC3  653   5.211   7.319   2.076
    2ARG     BB  654   5.615   7.267   1.773
    2ARG    SC1  655   5.895   7.255   1.607
    2ARG    SC2  656   6.123   7.303   1.310
    3TYR     BB  657   5.512   7.516   1.597
    3TYR    SC1  658   5.225   7.507   1.647
    3TYR    SC2  659   5.125   7.688   1.524
    3TYR    SC3  660   4.937   7.546   1.463
    1TYR     BB  661   5.902   6.212   4.866
    1TYR    SC1  662   6.076   5.979   4.975
    1TYR    SC2  663   6.243   6.116   5.082
    1TYR    SC3  664   6.258   5.959   5.267
    2ARG     BB  665   5.954   6.362   5.208
    2ARG    SC1  666   5.774   6.623   5.131
    2ARG    SC2  667   5.642   6.974   5.170
    3TYR     BB  668   6.175   6.547   5.351
    3TYR    SC1  669   6.314   6.352   5.517
    3TYR    SC2  670   6.488   6.468   5.636
    3TYR    SC3  671   6.442   6.339   5.836
    1TYR     BB  672   5.834   3.009   4.810
    1TYR    SC1  673   6.031   3.111   5.028
    1TYR    SC2  674   6.222   3.137   4.885
    1TYR    SC3  675   6.288   3.339   5.003
    2ARG     BB  676   5.983   3.285   4.601
    2ARG    SC1  677   5.791   3.210   4.348
    2ARG    SC2  678   5.677   3.211   3.988
    3TYR     BB  679   6.237   3.321   4.406
    3TYR    SC1  680   6.417   3.477   4.574
    3TYR    SC2  681   6.618   3.517   4.448
    3TYR    SC3  682   6.630   3.744   4.533
    1TYR     BB  683   6.929   6.560   0.878
    1TYR    SC1  684   7.129   6.382   0.720
    1TYR    SC2  685   6.986   6.338   0.531
    1TYR    SC3  686   7.175   6.352   0.380
    2ARG     BB  687   6.863   6.718   0.542
    2ARG    SC1  688   6.646   6.925   0.672
    2ARG    SC2  689   6.363   7.174   0.670
    3TYR     BB  690   6.670   6.662   0.290
    3TYR    SC1  691   6.859   6.551   0.098
    3TYR    SC2  692   6.736   6.500  -0.103
    3TYR    SC3  693   6.919   6.581  -0.240
    1TYR     BB  694   3.701   0.816   6.154
    1TYR    SC1  695   3.887   0.811   6.403
    1TYR    SC2  696   3.765   0.973   6.533
    1TYR    SC3  697   3.808   0.847   6.736
    2ARG     BB  698   3.423   0.809   6.408
    2ARG    SC1  699   3.196   0.811   6.174
    2ARG    SC2  700   2.850   0.854   6.028
    3TYR     BB  701   3.257   1.025   6.581
    3TYR    SC1  702   3.375   0.989   6.845
    3TYR    SC2  703   3.265   1.143   6.994
    3TYR    SC3  704   3.262   0.975   7.170
    1TYR     BB  705   6.870   5.818   4.463
    1TYR    SC1  706   6.728   5.798   4.186
    1TYR    SC2  707   6.702   5.559   4.185
    1TYR    SC3  708   6.484   5.580   4.081
    2ARG     BB  709   6.608   5.571   4.573
    2ARG    SC1  710   6.727   5.566   4.877
    2ARG    SC2  711   6.775   5.434   5.227
    3TYR     BB  712   6.572   5.251   4.574
    3TYR    SC1  713   6.383   5.214   4.356
    3TYR    SC2  714   6.341   4.977   4.336
    3TYR    SC3  715   6.105   5.020   4.295
    1TYR     BB  716   0.312   1.617   5.646
    1TYR    SC1  717   0.422   1.768   5.895
    1TYR    SC2  718   0.217   1.769   6.021
    1TYR    SC3  719   0.340   1.732   6.227
    2ARG     BB  720   0.148   1.394   5.902
    2ARG    SC1  721   0.015   1.208   5.668
    2ARG    SC2  722  -0.222   0.953   5.523
    3TYR     BB  723  -0.127   1.392   6.070
    3TYR    SC1  724  -0.033   1.470   6.334
    3TYR    SC2  725  -0.225   1.476   6.480
    3TYR    SC3  726  -0.094   1.377   6.660
    1TYR     BB  727   1.433   5.147   4.960
    1TYR    SC1  728   1.710   5.190   4.825
    1TYR    SC2  729   1.663   5.064   4.625
    1TYR    SC3  730   1.787   5.225   4.492
    2ARG     BB  731   1.296   5.221   4.617
    2ARG    SC1  732   0.989   5.186   4.722
    2ARG    SC2  733   0.616   5.138   4.689
    3TYR     BB  734   1.231   5.054   4.349
    3TYR    SC1  735   1.452   5.134   4.177
    3TYR    SC2  736   1.425   5.020   3.967
    3TYR    SC3  737   1.495   5.219   3.846
    1TYR     BB  738   0.649   4.440   1.812
    1TYR    SC1  739   0.646   4.613   1.553
    1TYR    SC2  740   0.797   4.475   1.425
    1TYR    SC3  741   0.667   4.514   1.224
    2ARG     BB  742   0.618   4.150   1.573
    2ARG    SC1  743   0.615   3.936   1.819
    2ARG    SC2  744   0.643   3.597   1.983
    3TYR     BB  745   0.818   3.963   1.404
    3TYR    SC1  746   0.781   4.069   1.135
    3TYR    SC2  747   0.923   3.943   0.987
    3TYR    SC3  748   0.750   3.940   0.817
    1TYR     BB  749   2.357   2.554   6.822
    1TYR    SC1  750   2.255   2.649   7.100
    1TYR    SC2  751   2.209   2.431   7.190
    1TYR    SC3  752   2.289   2.500   7.408
    2ARG     BB  753   2.546   2.296   7.021
    2ARG    SC1  754   2.676   2.168   6.750
    2ARG    SC2  755   2.852   1.908   6.541
    3TYR     BB  756   2.487   2.002   7.140
    3TYR    SC1  757   2.452   2.061   7.423
    3TYR    SC2  758   2.406   1.853   7.535
    3TYR    SC3  759   2.546   1.919   7.722
    1TYR     BB  760   2.361   3.867   4.886
    1TYR    SC1  761   2.596   3.726   5.034
    1TYR    SC2  762   2.718   3.926   5.091
    1TYR    SC3  763   2.778   3.831   5.306
    2ARG     BB  764   2.372   4.106   5.178
    2ARG    SC1  765   2.124   4.280   5.057
    2ARG    SC2  766   1.897   4.580   5.021
    3TYR     BB  767   2.532   4.375   5.256
    3TYR    SC1  768   2.723   4.273   5.451
    3TYR    SC2  769   2.857   4.459   5.525
    3TYR    SC3  770   2.852   4.376   5.753
    1TYR     BB  771   0.481   6.574   1.559
    1TYR    SC1  772   0.259   6.670   1.364
    1TYR    SC2  773   0.115   6.768   1.530
    1TYR    SC3  774   0.059   6.950   1.379
    2ARG     BB  775   0.437   6.914   1.715
    2ARG    SC1  776   0.669   6.852   1.937
    2ARG    SC2  777   0.864   6.903   2.256
    3TYR     BB  778   0.247   7.046   1.940
    3TYR    SC1  779   0.063   7.200   1.775
    3TYR    SC2  780  -0.092   7.310   1.923
    3TYR    SC3  781  -0.084   7.511   1.787
    1TYR     BB  782   6.595   2.726   7.663
    1TYR    SC1  783   6.521   2.970   7.843
    1TYR    SC2  784   6.684   3.122   7.753
    1TYR    SC3  785   6.526   3.306   7.769
    2ARG     BB  786   6.607   2.982   7.387
    2ARG    SC1  787   6.685   2.754   7.166
    2ARG    SC2  788   6.812   2.621   6.837
    3TYR     BB  789   6.825   3.185   7.264
    3TYR    SC1  790   6.732   3.440   7.370
    3TYR    SC2  791   6.882   3.611   7.291
    3TYR    SC3  792   6.695   3.762   7.254
    1TYR     BB  793   4.888   3.282   7.423
    1TYR    SC1  794   5.133   3.246   7.612
    1TYR    SC2  795   5.025   3.323   7.813
    1TYR    SC3  796   5.142   3.155   7.943
    2ARG     BB  797   4.694   3.126   7.706
    2ARG    SC1  798   4.415   3.145   7.538
    2ARG    SC2  799   4.041   3.142   7.488
    3TYR     BB  800   4.548   3.227   7.974
    3TYR    SC1  801   4.737   3.141   8.179
    3TYR    SC2  802   4.648   3.207   8.392
    3TYR    SC3  803   4.721   2.998   8.491
    1TYR     BB  804   0.588   2.958   7.855
    1TYR    SC1  805   0.657   2.664   7.784
    1TYR    SC2  806   0.495   2.639   7.607
    1TYR    SC3  807   0.652   2.505   7.478
    2ARG     BB  808   0.582   3.008   7.482
    2ARG    SC1  809   0.511   3.325   7.515
    2ARG    SC2  810   0.393   3.666   7.405
    3TYR     BB  811   0.367   2.978   7.244
    3TYR    SC1  812   0.456   2.731   7.117
    3TYR    SC2  813   0.308   2.686   6.933
    3TYR    SC3  814   0.495   2.614   6.796
    1TYR     BB  815   3.062   7.796   7.551
    1TYR    SC1  816   3.060   7.488   7.507
    1TYR    SC2  817   2.823   7.457   7.530
    1TYR    SC3  818   2.824   7.290   7.354
    2ARG     BB  819   2.763   7.793   7.321
    2ARG    SC1  820   2.733   8.117   7.340
    2ARG    SC2  821   2.560   8.451   7.304
    3TYR     BB  822   2.445   7.754   7.350
    3TYR    SC1  823   2.410   7.483   7.248
    3TYR    SC2  824   2.176   7.430   7.260
    3TYR    SC3  825   2.187   7.318   7.045
    1TYR     BB  826   4.246   1.998   4.477
    1TYR    SC1  827   4.097   1.842   4.701
    1TYR    SC2  828   3.960   2.025   4.776
    1TYR    SC3  829   3.773   1.875   4.812
    2ARG     BB  830   3.904   2.134   4.396
    2ARG    SC1  831   4.023   2.311   4.149
    2ARG    SC2  832   4.021   2.582   3.886
    3TYR     BB  833   3.720   2.380   4.494
    3TYR    SC1  834   3.525   2.242   4.660
    3TYR    SC2  835   3.373   2.408   4.747
    3TYR    SC3  836   3.185   2.258   4.714
    1TYR     BB  837   3.199   1.483   0.269
    1TYR    SC1  838   3.300   1.627   0.526
    1TYR    SC2  839   3.109   1.578   0.663
    1TYR    SC3  840   3.252   1.545   0.857
    2ARG     BB  841   3.098   1.210   0.508
    2ARG    SC1  842   2.982   1.026   0.264
    2ARG    SC2  843   2.784   0.747   0.106
    3TYR     BB  844   2.842   1.141   0.691
    3TYR    SC1  845   2.941   1.209   0.956
    3TYR    SC2  846   2.764   1.165   1.113
    3TYR    SC3  847   2.923   1.075   1.273
    1TYR     BB  848   6.943   1.801   3.346
    1TYR    SC1  849   6.926   2.107   3.297
    1TYR    SC2  850   7.161   2.153   3.315
    1TYR    SC3  851   7.147   2.317   3.137
    2ARG     BB  852   7.237   1.818   3.111
    2ARG    SC1  853   7.287   1.496   3.134
    2ARG    SC2  854   7.479   1.173   3.101
    3TYR     BB  855   7.553   1.876   3.134
    3TYR    SC1  856   7.569   2.147   3.027
    3TYR    SC2  857   7.801   2.214   3.034
    3TYR    SC3  858   7.779   2.322   2.817
    1TYR     BB  859   7.506   3.635   2.753
    1TYR    SC1  860   7.518   3.838   2.518
    1TYR    SC2  861   7.598   4.025   2.645
    1TYR    SC3  862   7.740   4.094   2.460
    2ARG     BB  863   7.842   3.779   2.845
    2ARG    SC1  864   7.868   3.581   3.102
    2ARG    SC2  865   8.006   3.458   3.431
    3TYR     BB  866   7.952   4.029   3.017
    3TYR    SC1  867   8.033   4.212   2.806
    3TYR    SC2  868   8.120   4.411   2.912
    3TYR    SC3  869   8.297   4.425   2.747
    1TYR     BB  870   6.356   5.153   3.291
    1TYR    SC1  871   6.136   4.978   3.158
    1TYR    SC2  872   6.207   4.767   3.250
    1TYR    SC3  873   5.976   4.698   3.279
    2ARG     BB  874   6.279   4.949   3.599
    2ARG    SC1  875   6.502   5.112   3.773
    2ARG    SC2  876   6.735   5.174   4.064
    3TYR     BB  877   6.375   4.668   3.724
    3TYR    SC1  878   6.145   4.499   3.667
    3TYR    SC2  879   6.194   4.279   3.753
    3TYR    SC3  880   5.966   4.256   3.832
    1TYR     BB  881   3.416  -0.226   3.207
    1TYR    SC1  882   3.647  -0.284   3.006
    1TYR    SC2  883   3.537  -0.198   2.810
    1TYR    SC3  884   3.746  -0.106   2.729
    2ARG     BB  885   3.395   0.106   3.028
    2ARG    SC1  886   3.151   0.205   3.221
    2ARG    SC2  887   2.860   0.420   3.325
    3TYR     BB  888   3.247   0.223   2.767
    3TYR    SC1  889   3.468   0.239   2.578
    3TYR    SC2  890   3.380   0.326   2.371
    3TYR    SC3  891   3.579   0.462   2.340
    1TYR     BB  892   3.720   3.367   7.806
    1TYR    SC1  893   3.633   3.076   7.736
    1TYR    SC2  894   3.396   3.111   7.759
    1TYR    SC3  895   3.353   2.966   7.569
    2ARG     BB  896   3.435   3.466   7.580
    2ARG    SC1  897   3.496   3.784   7.627
    2ARG    SC2  898   3.424   4.154   7.622
    3TYR     BB  899   3.118   3.516   7.609
    3TYR    SC1  900   3.011   3.275   7.485
    3TYR    SC2  901   2.771   3.289   7.495
    3TYR    SC3  902   2.753   3.196   7.271
    1TYR     BB  903   5.413  -0.245   6.485
    1TYR    SC1  904   5.247  -0.353   6.725
    1TYR    SC2  905   5.216  -0.142   6.836
    1TYR    SC3  906   4.989  -0.205   6.898
    2ARG     BB  907   5.155   0.030   6.480
    2ARG    SC1  908   5.300   0.175   6.225
    2ARG    SC2  909   5.375   0.455   5.984
    3TYR     BB  910   5.112   0.314   6.626
    3TYR    SC1  911   4.904   0.249   6.819
    3TYR    SC2  912   4.854   0.449   6.943
    3TYR    SC3  913   4.617   0.396   6.939
    1TYR     BB  914   7.425   1.417   1.413
    1TYR    SC1  915   7.674   1.422   1.599
    1TYR    SC2  916   7.559   1.491   1.799
    1TYR    SC3  917   7.699   1.345   1.934
    2ARG     BB  918   7.257   1.247   1.704
    2ARG    SC1  919   6.976   1.221   1.540
    2ARG    SC2  920   6.606   1.166   1.496
    3TYR     BB  921   7.101   1.338   1.971
    3TYR    SC1  922   7.302   1.286   2.176
    3TYR    SC2  923   7.207   1.347   2.388
    3TYR    SC3  924   7.309   1.154   2.493
    1TYR     BB  925   3.362   4.890   1.334
    1TYR    SC1  926   3.065   4.826   1.266
    1TYR    SC2  927   3.033   4.658   1.435
    1TYR    SC3  928   2.807   4.738   1.476
    2ARG     BB  929   3.243   4.881   1.691
    2ARG    SC1  930   3.543   4.948   1.803
    2ARG    SC2  931   3.819   4.974   2.059
    3TYR     BB  932   3.202   4.657   1.920
    3TYR    SC1  933   2.911   4.629   1.919
    3TYR    SC2  934   2.854   4.464   2.085
    3TYR    SC3  935   2.662   4.595   2.155
    1TYR     BB  936   1.176   2.667   0.758
    1TYR    SC1  937   1.006   2.430   0.652
    1TYR    SC2  938   0.826   2.450   0.810
    1TYR    SC3  939   0.663   2.394   0.639
    2ARG     BB  940   0.846   2.848   0.775
    2ARG    SC1  941   0.989   3.119   0.888
    2ARG    SC2  942   1.006   3.458   1.052
    3TYR     BB  943   0.605   2.878   0.988
    3TYR    SC1  944   0.401   2.708   0.868
    3TYR    SC2  945   0.208   2.714   1.011
    3TYR    SC3  946   0.061   2.721   0.818
    1TYR     BB  947   2.222   1.476   6.237
    1TYR    SC1  948   2.112   1.246   6.058
    1TYR    SC2  949   1.942   1.171   6.210
    1TYR    SC3  950   1.790   1.130   6.025
    2ARG     BB  951   1.858   1.552   6.298
    2ARG    SC1  952   1.933   1.804   6.492
    2ARG    SC2  953   1.871   2.070   6.751
    3TYR     BB  954   1.629   1.454   6.502
    3TYR    SC1  955   1.469   1.282   6.330
    3TYR    SC2  956   1.288   1.194   6.463
    3TYR    SC3  957   1.135   1.221   6.277
    1TYR     BB  958   7.743   4.190   6.408
    1TYR    SC1  959   7.492   4.065   6.275
    1TYR    SC2  960   7.468   3.879   6.426
    1TYR    SC3  961   7.226   3.900   6.419
    2ARG     BB  962   7.560   4.122   6.730
    2ARG    SC1  963   7.803   4.249   6.907
    2ARG    SC2  964   8.005   4.316   7.218
    3TYR     BB  965   7.529   3.876   6.936
    3TYR    SC1  966   7.262   3.780   6.871
    3TYR    SC2  967   7.215   3.592   7.014
    3TYR    SC3  968   6.987   3.668   7.044
    1TYR     BB  969   5.148   6.220   1.117
    1TYR    SC1  970   4.895   6.400   1.097
    1TYR    SC2  971   4.948   6.501   0.885
    1TYR    SC3  972   4.714   6.494   0.819
    2ARG     BB  973   5.078   6.146   0.754
    2ARG    SC1  974   5.335   5.947   0.735
    2ARG    SC2  975   5.602   5.742   0.564
    3TYR     BB  976   5.150   6.278   0.469
    3TYR    SC1  977   4.896   6.402   0.397
    3TYR    SC2  978   4.926   6.510   0.184
    3TYR    SC3  979   4.706   6.437   0.113
    1TYR     BB  980   6.253   1.117   2.803
    1TYR    SC1  981   6.351   0.926   3.029
    1TYR    SC2  982   6.396   0.736   2.888
    1TYR    SC3  983   6.593   0.682   3.020
    2ARG     BB  984   6.550   0.982   2.613
    2ARG    SC1  985   6.481   1.170   2.355
    2ARG    SC2  986   6.500   1.282   1.995
    3TYR     BB  987   6.612   0.730   2.423
    3TYR    SC1  988   6.766   0.560   2.602
    3TYR    SC2  989   6.825   0.361   2.480
    3TYR    SC3  990   7.047   0.361   2.580
    1TYR     BB  991   3.291   1.407   2.351
    1TYR    SC1  992   3.067   1.533   2.527
    1TYR    SC2  993   3.130   1.426   2.734
    1TYR    SC3  994   3.076   1.628   2.858
    2ARG     BB  995   3.514   1.489   2.643
    2ARG    SC1  996   3.776   1.368   2.490
    2ARG    SC2  997   4.127   1.234   2.459
    3TYR     BB  998   3.602   1.347   2.919
    3TYR    SC1  999   3.447   1.500   3.113
    3TYR    SC2 1000   3.496   1.410   3.331
    3TYR    SC3 1001   3.499   1.634   3.426
    1TYR     BB 1002   2.202   3.705   3.336
    1TYR    SC1 1003   2.084   3.688   3.048
    1TYR    SC2 1004   2.153   3.462   3.002
    1TYR    SC3 1005   1.945   3.420   2.883
    2ARG     BB 1006   2.054   3.360   3.376
    2ARG    SC1 1007   2.160   3.340   3.684
    2ARG    SC2 1008   2.249   3.168   4.007
    3TYR     BB 1009   2.145   3.057   3.316
    3TYR    SC1 1010   1.989   2.996   3.078
    3TYR    SC2 1011   2.041   2.770   3.013
    3TYR    SC3 1012   1.808   2.729   2.958
    1TYR     BB 1013   7.535   0.567   2.092
    1TYR    SC1 1014   7.261   0.594   2.237
    1TYR    SC2 1015   7.336   0.519   2.454
    1TYR    SC3 1016   7.193   0.683   2.563
    2ARG     BB 1017   7.673   0.728   2.404
    2ARG    SC1 1018   7.977   0.719   2.285
    2ARG    SC2 1019   8.354   0.734   2.299
    3TYR     BB 1020   7.775   0.629   2.693
    3TYR    SC1 1021   7.552   0.708   2.863
    3TYR    SC2 1022   7.606   0.643   3.088
    3TYR    SC3 1023   7.510   0.850   3.174
    1TYR     BB 1024   0.604   7.625   5.771
    1TYR    SC1 1025   0.547   7.642   5.465
    1TYR    SC2 1026   0.754   7.746   5.402
    1TYR    SC3 1027   0.763   7.613   5.199
    2ARG     BB 1028   0.946   7.510   5.661
    2ARG    SC1 1029   1.044   7.477   5.971
    2ARG    SC2 1030   1.293   7.439   6.252
    3TYR     BB 1031   1.225   7.648   5.580
    3TYR    SC1 1032   1.223   7.614   5.290
    3TYR    SC2 1033   1.426   7.711   5.204
    3TYR    SC3 1034   1.450   7.529   5.046
    1TYR     BB 1035   0.211   5.461   3.111
    1TYR    SC1 1036   0.006   5.680   3.027
    1TYR    SC2 1037   0.072   5.693   2.795
    1TYR    SC3 1038  -0.160   5.721   2.728
    2ARG     BB 1039   0.109   5.295   2.788
    2ARG    SC1 1040   0.312   5.045   2.841
    2ARG    SC2 1041   0.516   4.741   2.752
    3TYR     BB 1042   0.198   5.310   2.478
    3TYR    SC1 1043  -0.024   5.461   2.363
    3TYR    SC2 1044   0.021   5.486   2.128
    3TYR    SC3 1045  -0.214   5.448   2.077
    1TYR     BB 1046   0.425   6.964   8.116
    1TYR    SC1 1047   0.560   6.733   7.958
    1TYR    SC2 1048   0.409   6.735   7.770
    1TYR    SC3 1049   0.593   6.690   7.618
    2ARG     BB 1050   0.410   7.135   7.780
    2ARG    SC1 1051   0.268   7.398   7.910
    2ARG    SC2 1052   0.075   7.723   7.909
    3TYR     BB 1053   0.208   7.141   7.529
    3TYR    SC1 1054   0.353   6.977   7.336
    3TYR    SC2 1055   0.219   6.966   7.136
    3TYR    SC3 1056   0.418   6.986   6.998
    1TYR     BB 1057   4.714   7.611   5.046
    1TYR    SC1 1058   4.503   7.610   4.817
    1TYR    SC2 1059   4.657   7.566   4.637
    1TYR    SC3 1060   4.494   7.422   4.529
    2ARG     BB 1061   4.851   7.307   4.870
    2ARG    SC1 1062   5.088   7.273   5.093
    2ARG    SC2 1063   5.413   7.146   5.235
    3TYR     BB 1064   5.058   7.247   4.631
    3TYR    SC1 1065   4.876   7.176   4.415
    3TYR    SC2 1066   5.010   7.126   4.221
    3TYR    SC3 1067   4.865   6.940   4.164
    1TYR     BB 1068   1.883   5.199   7.565
    1TYR    SC1 1069   2.158   5.314   7.474
    1TYR    SC2 1070   2.088   5.386   7.255
    1TYR    SC3 1071   2.227   5.585   7.273
    2ARG     BB 1072   1.744   5.515   7.412
    2ARG    SC1 1073   1.439   5.430   7.492
    2ARG    SC2 1074   1.062   5.443   7.479
    3TYR     BB 1075   1.648   5.611   7.120
    3TYR    SC1 1076   1.871   5.781   7.040
    3TYR    SC2 1077   1.822   5.867   6.820
    3TYR    SC3 1078   1.911   6.084   6.881
    1TYR     BB 1079   1.830   8.311   0.681
    1TYR    SC1 1080   2.051   8.235   0.887
    1TYR    SC2 1081   2.037   7.997   0.856
    1TYR    SC3 1082   2.279   7.977   0.878
    2ARG     BB 1083   1.998   8.054   0.463
    2ARG    SC1 1084   1.785   8.107   0.221
    2ARG    SC2 1085   1.602   8.033  -0.101
    3TYR     BB 1086   1.980   7.736   0.419
    3TYR    SC1 1087   2.222   7.646   0.552
    3TYR    SC2 1088   2.231   7.406   0.533
    3TYR    SC3 1089   2.471   7.415   0.493
    1TYR     BB 1090   3.257   5.305   7.855
    1TYR    SC1 1091   3.528   5.326   7.702
    1TYR    SC2 1092   3.541   5.096   7.636
    1TYR    SC3 1093   3.634   5.160   7.420
    2ARG     BB 1094   3.149   5.099   7.558
    2ARG    SC1 1095   2.852   5.055   7.685
    2ARG    SC2 1096   2.513   4.894   7.722
    3TYR     BB 1097   3.165   4.790   7.468
    3TYR    SC1 1098   3.376   4.800   7.268
    3TYR    SC2 1099   3.407   4.576   7.185
    3TYR    SC3 1100   3.435   4.661   6.959
    4W        W 1101   0.349   1.633   2.100
    5W        W 1102   4.010   5.867   1.494
    6W        W 1103   3.772   4.299   0.403
    7W        W 1104   5.683   0.072   4.002
    8W        W 1105   3.484   7.360   2.147
    9W        W 1106   2.537   3.319   3.106
   10W        W 1107   3.373   7.676   5.025
   11W        W 1108   3.112   3.406   6.189
   12W        W 1109   3.682   2.669   5.460
   13W        W 1110   6.617   2.508   3.357
   14W        W 1111   0.928   6.753   6.162
   15W        W 1112   2.972   7.428   4.929
   16W        W 1113   7.158   3.321   3.628
   17W        W 1114   6.117   6.459   3.240
   18W        W 1115   7.256   3.126   1.905
   19W        W 1116   3.548   2.037   0.913
   20W        W 1117   4.614   4.267   3.949
   21W        W 1118   4.204   3.886   1.026
   22W        W 1119   3.255   5.763   3.879
   23W        W 1120   2.552   6.182   3.404
   24W        W 1121   5.594   4.501   0.154
   25W        W 1122   3.957   5.410   1.281
   26W        W 1123   1.975   6.238   5.081
   27W        W 1124   5.364   2.299   5.526
   28W        W 1125   2.937   0.037   5.008
   29W        W 1126   1.453   4.276   3.805
   30W        W 1127   3.032   2.144   5.556
   31W        W 1128   2.769   0.900   5.002
   32W        W 1129   0.180   4.842   4.244
   33W        W 1130   6.949   4.572   2.275
   34W        W 1131   7.654   6.841   5.972
   35W        W 1132   3.181   1.827   1.211
   36W        W 1133   4.354   0.291   4.467
   37W        W 1134   3.860   6.313   1.114
   38W        W 1135   3.430   4.024   2.538
   39W        W 1136   3.545   3.352   0.603
   40W        W 1137   2.630   7.135   2.585
   41W        W 1138   7.517   7.177   2.175
   42W        W 1139   2.251   0.633   4.073
   43W        W 1140   3.736   4.560   6.753
   44W        W 1141   7.851   2.797   3.902
   45W        W 1142   4.568   6.469   2.461
   46W        W 1143   5.681   4.462   4.970
   47W        W 1144   4.819   6.067   6.364
   48W        W 1145   0.606   2.177   6.213
   49W        W 1146   4.639   0.850   7.747
   50W        W 1147   1.119   5.630   1.968
   51W        W 1148   2.617   7.080   0.519
   52W        W 1149   1.180   3.272   4.125
   53W        W 1150   3.481   0.246   1.393
   54W        W 1151   6.733   1.195   3.868
   55W        W 1152   1.407   0.692   3.619
   56W        W 1153   3.987   7.321   3.032
   57W        W 1154   1.242   7.332   1.453
   58W        W 1155   1.855   6.457   3.898
   59W        W 1156   4.050   5.464   2.603
   60W        W 1157   2.220   4.370   2.646
   61W        W 1158   0.387   1.607   7.962
   62W        W 1159   1.261   6.947   0.428
   63W        W 1160   2.307   7.508   1.384
   64W        W 1161   6.442   3.540   3.828
   65W        W 1162   3.367   3.532   4.367
   66W        W 1163   3.230   4.191   0.394
   67W        W 1164   4.803   0.282   2.107
   68W        W 1165   3.462   3.638   5.146
   69W        W 1166   6.619   6.519   2.671
   70W        W 1167   7.309   0.266   0.194
   71W        W 1168   3.211   0.699   7.320
   72W        W 1169   6.292   0.807   0.486
   73W        W 1170   7.424   3.158   0.769
   74W        W 1171   5.880   5.100   7.157
   75W        W 1172   2.098   2.272   1.668
   76W        W 1173   6.438   4.924   7.950
   77W        W 1174   5.937   5.515   6.608
   78W        W 1175   1.608   1.490   1.416
   79W        W 1176   0.024   0.654   7.928
   80W        W 1177   5.349   6.095   3.993
   81W        W 1178   1.816   2.172   7.150
   82W        W 1179   5.173   2.658   1.706
   83W        W 1180   6.188   7.690   0.733
   84W        W 1181   1.268   4.458   2.892
   85W        W 1182   7.814   7.422   5.045
   86W        W 1183   0.819   0.266   0.956
   87W        W 1184   0.750   1.601   4.399
   88W        W 1185   4.102   4.177   4.143
   89W        W 1186   2.391   5.181   5.671
   90W        W 1187   0.259   7.046   0.824
   91W        W 1188   5.650   7.086   2.695
   92W        W 1189   6.056   5.766   5.520
   93W        W 1190   5.269   3.839   4.784
   94W        W 1191   7.915   3.693   5.877
   95W        W 1192   2.142   3.523   0.605
   96W        W 1193   5.241   5.224   4.271
   97W        W 1194   5.922   4.214   1.251
   98W        W 1195   2.383   2.228   2.244
   99W        W 1196   6.591   0.284   2.179
  100W        W 1197   0.546   4.305   3.982
  101W        W 1198   2.239   4.351   6.496
  102W        W 1199   2.076   4.846   5.023
  103W        W 1200   0.275   5.572   1.494
  104W        W 1201   7.405   3.890   1.145
  105W        W 1202   3.714   5.802   5.639
  106W        W 1203   0.394   3.751   3.247
  107W        W 1204   6.165   6.953   1.111
  108W        W 1205   7.728   0.116   7.149
  109W        W 1206   2.906   4.490   0.247
  110W        W 1207   3.678   0.463   4.635
  111W        W 1208   3.544   5.250   4.852
  112W        W 1209   7.724   7.128   1.245
  113W        W 1210   4.011   0.806   7.564
  114W        W 1211   0.266   3.307   6.067
  115W        W 1212   0.569   2.820   0.459
  116W        W 1213   1.384   0.021   3.146
  117W        W 1214   0.853   7.400   1.141
  118W        W 1215   2.052   0.513   6.055
  119W        W 1216   0.770   0.423   0.434
  120W        W 1217   2.607   7.020   6.969
  121W        W 1218   2.810   7.885   0.487
  122W        W 1219   2.552   4.984   3.352
  123W        W 1220   2.997   4.317   1.667
  124W        W 1221   1.083   6.169   5.039
  125W        W 1222   6.865   3.091   5.000
  126W        W 1223   3.990   4.941   5.149
  127W        W 1224   5.907   7.058   7.581
  128W        W 1225   3.354   0.720   1.981
  129W        W 1226   6.021   3.539   3.652
  130W        W 1227   2.808   2.563   2.111
  131W        W 1228   7.565   5.936   3.753
  132W        W 1229   4.262   7.625   6.543
  133W        W 1230   4.190   2.869   5.895
  134W        W 1231   7.276   5.425   2.118
  135W        W 1232   6.511   6.696   6.796
  136W        W 1233   4.572   5.569   2.581
  137W        W 1234   3.491   7.120   0.669
  138W        W 1235   3.830   6.778   4.809
  139W        W 1236   4.149   3.775   0.503
  140W        W 1237   4.457   1.760   0.882
  141W        W 1238   1.068   1.917   5.980
  142W        W 1239   5.990   6.957   3.045
  143W        W 1240   0.845   5.393   2.613
  144W        W 1241   2.615   3.713   1.550
  145W        W 1242   3.555   4.534   2.444
  146W        W 1243   4.290   5.252   2.235
  147W        W 1244   2.818   0.909   4.513
  148W        W 1245   7.292   5.438   1.135
  149W        W 1246   4.043   3.164   1.239
  150W        W 1247   5.000   7.333   7.344
  151W        W 1248   6.190   6.168   2.866
  152W        W 1249   0.307   4.777   6.065
  153W        W 1250   0.738   4.462   0.887
  154W        W 1251   0.049   0.664   0.817
  155W        W 1252   3.710   7.655   3.799
  156W        W 1253   7.245   2.690   7.612
  157W        W 1254   4.274   3.116   2.080
  158W        W 1255   0.612   1.030   7.085
  159W        W 1256   0.018   3.626   5.211
  160W        W 1257   7.280   1.793   5.959
  161W        W 1258   2.590   4.619   1.098
  162W        W 1259   7.009   0.626   1.518
  163W        W 1260   1.273   0.657   6.567
  164W        W 1261   7.214   5.267   4.884
  165W        W 1262   4.013   7.430   1.986
  166W        W 1263   6.418   3.571   0.115
  167W        W 1264   1.334   5.273   7.004
  168W        W 1265   5.923   0.865   0.157
  169W        W 1266   2.192   5.954   2.613
  170W        W 1267   0.347   7.146   3.114
  171W        W 1268   7.741   0.449   0.390
  172W        W 1269   1.469   6.671   5.382
  173W        W 1270   2.608   7.013   1.645
  174W        W 1271   6.769   5.310   0.874
  175W        W 1272   6.121   1.236   7.826
  176W        W 1273   7.235   4.956   6.943
  177W        W 1274   3.865   0.144   3.816
  178W        W 1275   7.603   5.308   4.528
  179W        W 1276   5.208   1.841   7.851
  180W        W 1277   4.545   3.698   6.398
  181W        W 1278   3.100   4.999   4.788
  182W        W 1279   2.201   3.642   2.003
  183W        W 1280   1.229   1.111   5.164
  184W        W 1281   2.950   7.365   2.256
  185W        W 1282   1.495   6.815   1.374
  186W        W 1283   0.800   1.759   3.437
  187W        W 1284   3.677   4.566   4.058
  188W        W 1285   1.439   3.755   2.342
  189W        W 1286   7.406   4.118   1.879
  190W        W 1287   4.317   0.499   1.908
  191W        W 1288   2.654   3.201   0.720
  192W        W 1289   1.345   2.618   2.437
  193W        W 1290   0.190   2.337   5.226
  194W        W 1291   2.368   0.020   4.519
  195W        W 1292   5.736   6.311   2.823
  196W        W 1293   1.161   0.086   5.427
  197W        W 1294   7.071   3.024   0.035
  198W        W 1295   6.196   7.507   4.890
  199W        W 1296   3.485   4.051   4.160
  200W        W 1297   2.242   4.833   0.719
  201W        W 1298   5.497   6.915   4.538
  202W        W 1299   2.980   2.287   7.647
  203W        W 1300   0.298   4.821   0.245
  204W        W 1301   3.681   2.474   1.733
  205W        W 1302   1.186   3.504   2.720
  206W        W 1303   3.843   3.473   5.560
  207W        W 1304   2.179   5.064   7.217
  208W        W 1305   4.348   6.632   6.331
  209W        W 1306   0.068   0.328   2.342
  210W        W 1307   5.498   6.883   4.043
  211W        W 1308   6.524   1.236   6.236
  212W        W 1309   5.849   0.071   4.560
  213W        W 1310   7.408   6.166   4.959
  214W        W 1311   0.445   4.265   0.421
  215W        W 1312   2.499   6.618   5.107
  216W        W 1313   2.303   2.590   3.904
  217W        W 1314   0.171   7.871   4.160
  218W        W 1315   0.862   3.544   6.816
  219W        W 1316   3.565   0.598   0.972
  220W        W 1317   7.556   5.320   3.163
  221W        W 1318   7.566   2.429   7.824
  222W        W 1319   3.559   1.697   5.985
  223W        W 1320   6.247   7.451   7.550
  224W        W 1321   1.325   5.009   3.067
  225W        W 1322   3.618   0.917   3.868
  226W        W 1323   1.347   4.575   1.821
  227W        W 1324   0.626   1.066   4.390
  228W        W 1325   6.745   7.306   0.052
  229W        W 1326   6.058   3.145   0.224
  230W        W 1327   2.843   6.163   4.726
  231W        W 1328   1.682   5.368   1.491
  232W        W 1329   2.867   2.023   2.130
  233W        W 1330   3.002   6.463   5.114
  234W        W 1331   7.841   5.773   4.474
  235W        W 1332   6.988   1.672   0.535
  236W        W 1333   7.317   7.251   0.731
  237W        W 1334   2.995   1.542   6.545
  238W        W 1335   5.791   3.202   6.485
  239W        W 1336   7.851   2.088   6.810
  240W        W 1337   1.278   4.324   5.223
  241W        W 1338   1.768   4.770   0.877
  242W        W 1339   4.800   6.174   2.801
  243W        W 1340   2.117   1.289   4.259
  244W        W 1341   0.995   2.283   0.036
  245W        W 1342   1.393   3.615   0.220
  246W        W 1343   2.434   5.388   4.233
  247W        W 1344   2.627   0.058   3.162
  248W        W 1345   5.078   0.628   5.918
  249W        W 1346   2.301   7.087   5.753
  250W        W 1347   1.257   2.988   3.634
  251W        W 1348   1.958   2.741   4.232
  252W        W 1349   1.209   3.848   3.757
  253W        W 1350   1.171   5.164   0.345
  254W        W 1351   6.131   1.084   5.860
  255W        W 1352   6.559   4.297   3.034
  256W        W 1353   1.930   4.403   3.622
  257W        W 1354   1.653   2.963   7.762
  258W        W 1355   7.497   7.503   2.703
  259W        W 1356   0.845   0.004   1.893
  260W        W 1357   3.685   4.593   1.142
  261W        W 1358   2.903   4.153   4.253
  262W        W 1359   4.763   6.233   1.425
  263W        W 1360   1.429   1.504   5.383
  264W        W 1361   3.548   0.353   4.147
  265W        W 1362   2.900   7.568   1.425
  266W        W 1363   1.814   4.223   0.816
  267W        W 1364   2.405   3.182   5.125
  268W        W 1365   1.022   4.864   2.682
  269W        W 1366   2.301   1.283   3.573
  270W        W 1367   5.328   7.070   1.319
  271W        W 1368   5.922   4.946   4.852
  272W        W 1369   5.649   3.354   2.642
  273W        W 1370   3.528   6.732   6.577
  274W        W 1371   5.659   4.976   2.782
  275W        W 1372   5.314   0.911   3.796
  276W        W 1373   1.579   5.387   0.174
  277W        W 1374   0.395   0.226   3.592
  278W        W 1375   7.103   5.197   3.607
  279W        W 1376   4.036   5.543   3.924
  280W        W 1377   0.108   5.363   5.096
  281W        W 1378   4.218   6.098   3.471
  282W        W 1379   5.229   4.522   7.471
  283W        W 1380   1.375   3.430   1.164
  284W        W 1381   1.671   4.157   5.560
  285W        W 1382   7.044   7.394   2.370
  286W        W 1383   1.383   5.875   3.643
  287W        W 1384   5.422   3.768   7.884
  288W        W 1385   6.533   5.993   5.084
  289W        W 1386   5.675   6.250   7.689
  290W        W 1387   2.804   4.582   3.176
  291W        W 1388   4.342   0.358   3.837
  292W        W 1389   4.244   0.539   5.236
  293W        W 1390   1.353   5.632   0.531
  294W        W 1391   0.524   2.258   3.431
  295W        W 1392   2.563   2.588   2.961
  296W        W 1393   3.545   7.783   0.149
  297W        W 1394   5.677   6.043   5.750
  298W        W 1395   0.087   7.329   0.257
  299W        W 1396   1.748   1.354   0.943
  300W        W 1397   1.742   1.862   7.722
  301W        W 1398   6.784   5.617   3.362
  302W        W 1399   2.731   4.151   6.901
  303W        W 1400   0.792   5.281   1.646
  304W        W 1401   0.422   5.714   0.978
  305W        W 1402   2.350   4.732   5.471
  306W        W 1403   2.805   1.992   3.466
  307W        W 1404   6.557   0.721   1.160
  308W        W 1405   0.535   4.424   3.478
  309W        W 1406   1.979   2.104   6.411
  310W        W 1407   4.588   6.991   0.788
  311W        W 1408   6.939   4.095   0.989
  312W        W 1409   2.481   2.362   6.005
  313W        W 1410   6.224   0.691   6.822
  314W        W 1411   0.632   3.857   7.284
  315W        W 1412   0.524   7.235   5.057
  316W        W 1413   6.416   6.936   7.574
  317W        W 1414   4.635   4.146   6.694
  318W        W 1415   5.425   3.722   2.390
  319W        W 1416   6.697   4.696   3.271
  320W        W 1417   5.016   5.636   1.548
  321W        W 1418   7.176   0.692   0.412
  322W        W 1419   1.617   1.242   2.597
  323W        W 1420   2.148   5.449   2.572
  324W        W 1421   3.105   0.486   4.764
  325W        W 1422   4.110   0.556   3.277
  326W        W 1423   7.241   7.263   5.065
  327W        W 1424   6.899   1.528   7.660
  328W        W 1425   0.805   4.184   0.003
  329W        W 1426   5.704   5.121   3.873
  330W        W 1427   0.520   2.210   6.938
  331W        W 1428   4.889   1.207   6.940
  332W        W 1429   1.004   5.143   2.218
  333W        W 1430   3.324   5.958   2.361
  334W        W 1431   0.997   2.101   5.539
  335W        W 1432   1.283   4.261   2.374
  336W        W 1433   2.328   1.500   4.662
  337W        W 1434   6.342   1.268   6.690
  338W        W 1435   0.777   1.492   0.827
  339W        W 1436   2.547   1.040   6.531
  340W        W 1437   7.406   4.704   5.392
  341W        W 1438   6.076   0.833   5.340
  342W        W 1439   2.768   3.633   7.114
  343W        W 1440   7.273   3.416   1.170
  344W        W 1441   6.681   7.391   7.347
  345W        W 1442   5.999   6.606   7.491
  346W        W 1443   1.627   0.717   2.411
  347W        W 1444   2.497   5.124   1.054
  348W        W 1445   5.570   2.933   1.837
  349W        W 1446   7.768   3.432   4.713
  350W        W 1447   4.981   5.828   7.675
  351W        W 1448   4.575   2.868   4.304
  352W        W 1449   0.994   4.818   1.317
  353W        W 1450   2.646   5.930   6.748
  354W        W 1451   5.321   1.660   3.240
  355W        W 1452   6.156   3.098   3.705
  356W        W 1453   4.818   5.202   6.966
  357W        W 1454   5.537   3.717   0.458
  358W        W 1455   4.323   2.836   0.552
  359W        W 1456   0.886   5.340   6.281
  360W        W 1457   0.306   1.856   4.245
  361W        W 1458   7.326   2.967   4.964
  362W        W 1459   4.214   5.143   5.601
  363W        W 1460   5.152   1.309   0.457
  364W        W 1461   4.337   3.721   2.079
  365W        W 1462   2.805   0.133   5.663
  366W        W 1463   2.413   5.702   5.113
  367W        W 1464   2.356   4.649   0.183
  368W        W 1465   2.193   3.020   0.659
  369W        W 1466   3.073   3.541   4.860
  370W        W 1467   7.972   4.131   5.298
  371W        W 1468   6.039   6.093   7.368
  372W        W 1469   7.456   5.787   1.422
  373W        W 1470   5.332   1.206   5.178
  374W        W 1471   4.362   4.703   3.421
  375W        W 1472   4.862   0.087   1.302
  376W        W 1473   6.397   4.930   5.059
  377W        W 1474   4.367   0.630   6.638
  378W        W 1475   0.573   6.303   0.535
  379W        W 1476   2.253   4.285   2.069
  380W        W 1477   0.523   0.084   2.524
  381W        W 1478   7.573   0.969   0.532
  382W        W 1479   5.668   7.368   6.679
  383W        W 1480   1.603   4.785   3.774
  384W        W 1481   0.241   3.307   1.316
  385W        W 1482   0.183   1.030   1.247
  386W        W 1483   0.825   0.474   5.265
  387W        W 1484   5.192   6.883   7.365
  388W        W 1485   5.184   4.770   1.939
  389W        W 1486   1.362   4.615   3.381
  390W        W 1487   0.058   2.030   4.773
  391W        W 1488   2.681   4.176   7.386
  392W        W 1489   0.707   7.542   3.167
  393W        W 1490   6.379   5.864   6.323
  394W        W 1491   1.168   3.771   4.365
  395W        W 1492   2.601   7.345   6.069
  396W        W 1493   3.601   2.142   5.778
  397W        W 1494   0.563   6.180   0.034
  398W        W 1495   2.204   3.416   0.101
  399W        W 1496   7.823   1.835   5.082
  400W        W 1497   3.953   1.633   4.995
  401W        W 1498   6.228   2.115   7.354
  402W        W 1499   0.166   5.804   4.064
  403W        W 1500   2.339   0.609   0.742
  404W        W 1501   3.541   1.808   0.365
  405W        W 1502   6.492   5.083   5.554
  406W        W 1503   0.225   6.259   7.246
  407W        W 1504   0.928   1.731   3.962
  408W        W 1505   7.648   1.659   2.228
  409W        W 1506   2.496   1.095   3.080
  410W        W 1507   0.595   3.849   4.288
  411W        W 1508   6.042   1.134   3.217
  412W        W 1509   4.477   3.244   7.145
  413W        W 1510   2.804   5.000   7.134
  414W        W 1511   5.180   3.234   1.965
  415W        W 1512   0.566   6.664   5.754
  416W        W 1513   7.344   7.811   6.781
  417W        W 1514   0.737   2.109   1.248
  418W        W 1515   6.718   4.841   6.852
  419W        W 1516   4.272   7.015   3.315
  420W        W 1517   1.687   4.864   5.992
  421W        W 1518   5.310   2.779   5.362
  422W        W 1519   0.761   1.889   0.418
  423W        W 1520   2.568   3.468   6.353
  424W        W 1521   6.150   4.390   4.087
  425W        W 1522   4.368   6.712   2.046
  426W        W 1523   4.959   3.917   5.607
  427W        W 1524   6.680   1.515   3.000
  428W        W 1525   0.909   0.784   7.552
  429W        W 1526   1.139   0.905   1.385
  430W        W 1527   5.608   4.952   0.798
  431W        W 1528   3.147   0.050   4.128
  432W        W 1529   2.707   0.257   1.550
  433W        W 1530   7.276   2.491   0.280
  434W        W 1531   5.050   7.122   0.900
  435W        W 1532   1.652   5.783   5.755
  436W        W 1533   3.212   4.240   6.956
  437W        W 1534   6.014   3.418   5.597
  438W        W 1535   5.090   3.496   3.901
  439W        W 1536   2.204   1.607   1.031
  440W        W 1537   5.933   7.313   7.178
  441W        W 1538   0.423   3.184   2.254
  442W        W 1539   5.206   1.158   3.101
  443W        W 1540   0.360   0.848   7.618
  444W        W 1541   1.492   2.380   7.774
  445W        W 1542   5.842   1.869   0.596
  446W        W 1543   6.914   3.731   3.693
  447W        W 1544   7.928   0.867   6.951
  448W        W 1545   6.904   5.757   2.450
  449W        W 1546   3.069   3.815   3.953
  450W        W 1547   0.201   7.539   6.349
  451W        W 1548   0.198   1.316   1.688
  452W        W 1549   6.652   7.714   3.202
  453W        W 1550   2.427   3.180   2.033
  454W        W 1551   6.265   7.347   0.304
  455W        W 1552   7.092   2.642   5.770
  456W        W 1553   2.646   2.891   3.764
  457W        W 1554   6.769   2.803   5.426
  458W        W 1555   1.299   3.182   0.545
  459W        W 1556   1.273   1.200   2.197
  460W        W 1557   7.431   1.580   4.839
  461W        W 1558   7.412   3.771   5.062
  462W        W 1559   0.548   4.539   4.546
  463W        W 1560   0.391   3.199   3.101
  464W        W 1561   4.071   4.230   5.690
  465W        W 1562   3.950   2.589   7.550
  466W        W 1563   7.042   2.932   0.499
  467W        W 1564   1.247   5.733   2.433
  468W        W 1565   2.995   7.596   5.450
  469W        W 1566   4.314   4.547   4.889
  470W        W 1567   6.508   7.541   1.735
  471W        W 1568   4.688   3.956   2.447
  472W        W 1569   6.934   7.511   5.920
  473W        W 1570   5.246   2.577   1.201
  474W        W 1571   7.077   6.869   0.119
  475W        W 1572   6.566   3.867   3.310
  476W        W 1573   2.219   2.691   5.617
  477W        W 1574   2.555   5.326   7.457
  478W        W 1575   2.006   2.279   5.823
  479W        W 1576   6.534   2.133   3.736
  480W        W 1577   2.697   7.460   4.056
  481W        W 1578   4.633   0.642   4.197
  482W        W 1579   3.496   3.235   4.749
  483W        W 1580   2.983   1.256   3.038
  484W        W 1581   5.067   6.904   3.109
  485W        W 1582   0.177   6.841   5.469
  486W        W 1583   0.100   5.858   0.041
  487W        W 1584   5.120   6.472   2.237
  488W        W 1585   7.425   1.891   3.543
  489W        W 1586   3.346   3.366   2.062
  490W        W 1587   2.905   0.493   5.326
  491W        W 1588   1.813   1.775   4.665
  492W        W 1589   1.215   4.687   0.844
  493W        W 1590   3.028   7.407   0.527
  494W        W 1591   7.582   0.005   3.042
  495W        W 1592   0.201   3.645   6.965
  496W        W 1593   0.830   1.719   7.354
  497W        W 1594   5.349   4.628   4.057
  498W        W 1595   4.966   2.867   6.984
  499W        W 1596   4.620   3.907   0.719
  500W        W 1597   4.987   7.461   7.894
  501W        W 1598   7.222   7.579   7.508
  502W        W 1599   7.792   6.749   0.286
  503W        W 1600   7.772   0.232   5.642
  504W        W 1601   0.497   0.157   4.251
  505W        W 1602   6.420   7.919   0.320
  506W        W 1603   5.940   6.054   0.239
  507W        W 1604   2.628   3.594   2.729
  508W        W 1605   3.020   1.291   5.221
  509W        W 1606   4.653   2.617   1.232
  510W        W 1607   6.209   0.931   1.592
  511W        W 1608   0.889   5.918   0.791
  512W        W 1609   0.322   3.167   4.880
  513W        W 1610   4.184   0.803   1.556
  514W        W 1611   5.660   4.132   7.602
  515W        W 1612   1.283   4.695   6.268
  516W        W 1613   1.247   6.209   5.510
  517W        W 1614   4.118   4.271   1.307
  518W        W 1615   1.712   6.500   6.804
  519W        W 1616   7.238   4.283   6.320
  520W        W 1617   7.635   5.228   2.470
  521W        W 1618   0.324   3.610   2.813
  522W        W 1619   0.224   3.742   0.793
  523W        W 1620   0.717   3.486   0.585
  524W        W 1621   6.343   2.126   3.278
  525W        W 1622   3.835   1.255   7.451
  526W        W 1623   3.187   0.885   5.582
  527W        W 1624   5.502   3.440   1.015
  528W        W 1625   0.033   4.036   6.689
  529W        W 1626   7.723   6.265   7.387
  530W        W 1627   5.805   4.808   1.212
  531W        W 1628   6.441   5.309   7.423
  532W        W 1629   5.144   5.357   7.685
  533W        W 1630   7.520   2.191   7.253
  534W        W 1631   3.017   5.364   3.640
  535W        W 1632   0.425   4.345   5.912
  536W        W 1633   1.437   0.553   6.083
  537W        W 1634   2.542   1.777   2.588
  538W        W 1635   7.378   5.867   1.885
  539W        W 1636   5.808   0.551   0.559
  540W        W 1637   7.877   2.039   7.607
  541W        W 1638   2.080   0.539   4.640
  542W        W 1639   4.426   0.669   2.879
  543W        W 1640   4.071   2.436   0.616
  544W        W 1641   5.158   5.228   6.585
  545W        W 1642   0.143   0.560   4.410
  546W        W 1643   4.606   5.967   5.119
  547W        W 1644   7.413   4.681   5.948
  548W        W 1645   0.286   5.890   4.577
  549W        W 1646   2.289   0.991   6.095
  550W        W 1647   2.265   7.063   5.248
  551W        W 1648   4.993   5.267   2.821
  552W        W 1649   7.259   2.940   1.332
  553W        W 1650   2.877   6.251   5.587
  554W        W 1651   1.227   1.237   0.955
  555W        W 1652   3.396   7.434   1.537
  556W        W 1653   4.232   3.931   7.043
  557W        W 1654   1.236   7.565   4.667
  558W        W 1655   5.740   1.246   1.262
  559W        W 1656   6.796   4.395   4.888
  560W        W 1657   4.930   6.797   1.256
  561W        W 1658   5.397   7.156   7.021
  562W        W 1659   1.186   5.085   5.902
  563W        W 1660   1.348   2.195   4.747
  564W        W 1661   5.230   6.346   6.416
  565W        W 1662   7.176   0.904   7.736
  566W        W 1663   2.805   4.665   6.760
  567W        W 1664   6.100   1.214   7.252
  568W        W 1665   6.460   0.201   5.175
  569W        W 1666   4.819   3.146   4.692
  570W        W 1667   5.101   1.691   1.163
  571W        W 1668   6.922   4.502   4.361
  572W        W 1669   2.800   6.112   3.806
  573W        W 1670   3.158   2.409   3.475
  574W        W 1671   5.289   4.868   1.395
  575W        W 1672   0.424   7.201   6.711
  576W        W 1673   2.291   0.858   7.014
  577W        W 1674   5.202   0.039   1.816
  578W        W 1675   3.216   2.553   6.908
  579W        W 1676   4.125   0.137   4.980
  580W        W 1677   6.426   3.661   7.654
  581W        W 1678   5.652   1.070   7.518
  582W        W 1679   1.500   7.354   5.865
  583W        W 1680   3.738   3.949   6.893
  584W        W 1681   1.396   5.128   1.171
  585W        W 1682   5.814   6.463   4.070
  586W        W 1683   7.084   0.246   7.757
  587W        W 1684   7.535   3.451   6.572
  588W        W 1685   2.863   3.651   4.411
  589W        W 1686   7.743   2.535   6.986
  590W        W 1687   0.942   3.312   3.162
  591W        W 1688   7.696   4.389   5.619
  592W        W 1689   2.483   6.525   4.522
  593W        W 1690   5.663   7.312   0.318
  594W        W 1691   5.389   2.908   7.218
  595W        W 1692   6.666   1.431   7.086
  596W        W 1693   6.520   5.539   5.383
  597W        W 1694   3.053   0.148   6.574
  598W        W 1695   3.165   0.879   0.806
  599W        W 1696   2.648   2.429   4.900
  600W        W 1697   7.142   7.191   3.641
  601W        W 1698   5.414   4.967   5.019
  602W        W 1699   5.643   4.973   1.712
  603W        W 1700   3.923   5.851   2.934
  604W        W 1701   1.047   0.730   0.842
  605W        W 1702   3.634   0.799   1.537
  606W        W 1703   3.739   6.172   4.685
  607W        W 1704   0.747   7.548   4.601
  608W        W 1705   7.994   6.359   3.127
  609W        W 1706   1.802   3.796   0.068
  610W        W 1707   4.654   7.471   0.948
  611W        W 1708   3.264   6.732   4.230
  612W        W 1709   5.444   5.721   6.519
  613W        W 1710   1.008   3.978   2.077
  614W        W 1711   0.677   1.078   1.695
  615W        W 1712   7.017   4.256   1.494
  616W        W 1713   6.891   6.336   5.858
  617W        W 1714   5.465   1.586   6.276
  618W        W 1715   1.659   3.056   1.384
  619W        W 1716   1.408   3.908   7.214
  620W        W 1717   1.016   3.415   6.237
  621W        W 1718   5.187   5.137   2.376
  622W        W 1719   4.676   2.608   2.394
  623W        W 1720   5.945   7.734   0.261
  624W        W 1721   1.525   2.450   0.197
  625W        W 1722   0.843   5.491   6.891
  626W        W 1723   4.583   7.146   2.891
  627W        W 1724   4.845   3.903   4.494
  628W        W 1725   3.044   4.869   6.206
  629W        W 1726   1.797   6.203   3.493
  630W        W 1727   2.900   5.411   5.076
  631W        W 1728   3.065   2.670   2.662
  632W        W 1729   2.286   5.863   6.341
  633W        W 1730   3.708   0.846   7.169
  634W        W 1731   5.315   1.012   2.156
  635W        W 1732   1.212   6.050   4.135
  636W        W 1733   4.418   4.685   2.333
  637W        W 1734   3.570   2.692   4.939
  638W        W 1735   3.117   3.245   0.875
  639W        W 1736   3.302   5.552   5.361
  640W        W 1737   7.441   2.521   4.771
  641W        W 1738   5.560   3.464   4.792
  642W        W 1739   4.183   0.432   5.722
  643W        W 1740   4.758   3.178   2.262
  644W        W 1741   7.052   4.064   4.338
  645W        W 1742   0.063   3.334   1.877
  646W        W 1743   4.492   2.315   5.164
  647W        W 1744   6.124   5.431   3.999
  648W        W 1745   2.929   3.730   6.663
  649W        W 1746   6.545   0.630   1.750
  650W        W 1747   3.666   1.042   2.376
  651W        W 1748   4.892   0.678   3.118
  652W        W 1749   1.349   4.504   5.750
  653W        W 1750   7.084   3.028   2.700
  654W        W 1751   5.809   4.553   3.736
  655W        W 1752   7.508   3.429   0.331
  656W        W 1753   0.355   1.834   0.726
  657W        W 1754   3.006   4.287   2.349
  658W        W 1755   7.125   2.817   3.551
  659W        W 1756   6.192   5.055   6.704
  660W        W 1757   2.920   7.448   6.800
  661W        W 1758   0.547   1.496   2.918
  662W        W 1759   0.045   5.409   0.230
  663W        W 1760   3.246   0.574   7.868
  664W        W 1761   1.212   3.620   1.771
  665W        W 1762   1.071   5.493   0.947
  666W        W 1763   0.202   1.289   7.218
  667W        W 1764   6.261   0.329   0.226
  668W        W 1765   5.221   7.081   1.783
  669W        W 1766   4.346   7.524   2.685
  670W        W 1767   0.272   4.236   0.905
  671W        W 1768   5.840   5.692   4.668
  672W        W 1769   6.359   6.594   1.848
  673W        W 1770   5.430   2.222   2.987
  674W        W 1771   0.352   0.725   0.326
  675W        W 1772   5.441   5.763   1.841
  676W        W 1773   0.531   2.365   5.632
  677W        W 1774   2.954   1.700   1.674
  678W        W 1775   7.621   3.237   5.727
  679W        W 1776   5.750   2.488   7.144
  680W        W 1777   1.721   3.936   3.585
  681W        W 1778   3.599   7.066   1.749
  682W        W 1779   4.090   4.384   7.175
  683W        W 1780   5.545   4.090   2.682
  684W        W 1781   2.264   5.237   2.081
  685W        W 1782   3.932   3.889   7.439
  686W        W 1783   5.110   0.302   7.294
  687W        W 1784   2.502   6.522   3.966
  688W        W 1785   4.040   7.897   1.758
  689W        W 1786   5.233   2.606   3.191
  690W        W 1787   5.567   7.716   0.647
  691W        W 1788   4.869   1.991   7.449
  692W        W 1789   3.390   3.753   2.940
  693W        W 1790   0.812   1.401   2.087
  694W        W 1791   3.202   6.231   7.403
  695W        W 1792   1.524   6.920   4.096
  696W        W 1793   1.421   1.412   3.028
  697W        W 1794   2.250   3.925   2.825
  698W        W 1795   2.017   4.018   0.446
  699W        W 1796   2.558   2.666   6.394
  700W        W 1797   4.214   0.131   6.769
  701W        W 1798   7.651   2.160   5.691
  702W        W 1799   7.147   2.379   4.286
  703W        W 1800   2.562   1.742   0.562
  704W        W 1801   7.000   6.917   1.133
  705W        W 1802   5.918   1.346   4.481
  706W        W 1803   7.354   5.835   6.709
  707W        W 1804   1.022   7.298   5.068
  708W        W 1805   1.637   3.652   1.536
  709W        W 1806   4.700   5.783   3.570
  710W        W 1807   4.056   4.719   5.852
  711W        W 1808   5.083   0.796   4.373
  712W        W 1809   3.569   7.764   1.852
  713W        W 1810   1.888   2.036   1.124
  714W        W 1811   3.141   5.918   4.320
  715W        W 1812   1.164   5.531   1.461
  716W        W 1813   1.054   6.590   4.219
  717W        W 1814   5.900   4.482   7.822
  718W        W 1815   3.662   1.541   5.473
  719W        W 1816   3.922   4.919   2.477
  720W        W 1817   3.203   4.382   3.852
  721W        W 1818   4.765   0.817   1.985
  722W        W 1819   0.138   4.991   3.804
  723W        W 1820   6.678   2.203   6.575
  724W        W 1821   7.047   0.066   2.996
  725W        W 1822   1.420   6.824   7.049
  726W        W 1823   2.137   6.064   3.184
  727W        W 1824   5.599   1.795   1.442
  728W        W 1825   1.079   1.219   7.341
  729W        W 1826   6.324   7.800   5.275
  730W        W 1827   3.896   0.582   2.569
  731W        W 1828   7.838   7.938   6.760
  732W        W 1829   5.724   3.797   7.221
  733W        W 1830   1.694   6.996   6.608
  734W        W 1831   6.550   6.219   6.919
  735W        W 1832   4.141   2.484   1.491
  736W        W 1833   4.366   4.879   1.892
  737W        W 1834   3.890   4.464   5.227
  738W        W 1835   4.322   4.220   2.198
  739W        W 1836   7.712   6.556   5.491
  740W        W 1837   6.681   0.257   1.311
  741W        W 1838   7.127   1.857   4.383
  742W        W 1839   1.201   2.145   0.449
  743W        W 1840   6.194   7.259   6.684
  744W        W 1841   3.286   6.929   2.196
  745W        W 1842   7.891   6.294   0.069
  746W        W 1843   1.462   2.385   3.446
  747W        W 1844   6.538   2.591   5.035
  748W        W 1845   6.993   6.038   1.494
  749W        W 1846   6.843   6.613   4.968
  750W        W 1847   0.372   5.154   0.568
  751W        W 1848   3.695   6.274   7.428
  752W        W 1849   1.536   1.917   5.082
  753W        W 1850   7.188   6.624   5.549
  754W        W 1851   3.745   5.473   2.203
  755W        W 1852   2.387   1.610   3.010
  756W        W 1853   2.750   7.132   5.512
  757W        W 1854   1.472   4.161   3.223
  758W        W 1855   4.042   6.809   2.948
  759W        W 1856   2.298   5.809   2.189
  760W        W 1857   1.396   7.287   3.533
  761W        W 1858   1.489   6.440   3.203
  762W        W 1859   5.793   4.260   3.313
  763W        W 1860   6.593   6.010   1.145
  764W        W 1861   3.303   7.064   4.739
  765W        W 1862   5.584   4.019   1.010
  766W        W 1863   7.298   7.951   2.552
  767W        W 1864   7.551   2.447   6.509
  768W        W 1865   4.137   1.128   2.129
  769W        W 1866   3.710   2.616   7.064
  770W        W 1867   2.771   3.120   1.212
  771W        W 1868   3.496   1.347   0.700
  772W        W 1869   4.900   1.727   0.701
  773W        W 1870   5.959   1.680   4.854
  774W        W 1871   4.010   1.473   0.865
  775W        W 1872   3.907   1.399   6.185
  776W        W 1873   2.220   5.611   5.922
  777W        W 1874   5.565   4.482   1.544
  778W        W 1875   0.017   2.878   5.815
  779W        W 1876   5.654   3.685   5.857
  780W        W 1877   4.875   6.902   5.078
  781W        W 1878   0.603   3.088   3.538
  782W        W 1879   2.782   0.548   7.621
  783W        W 1880   0.824   2.973   4.029
  784W        W 1881   3.367   0.318   5.128
  785W        W 1882   4.797   7.291   3.383
  786W        W 1883   2.635   3.243   6.778
  787W        W 1884   2.664   7.910   6.859
  788W        W 1885   7.209   0.112   5.633
  789W        W 1886   5.711   6.140   6.348
  790W        W 1887   1.766   4.509   2.203
  791W        W 1888   1.742   2.104   3.805
  792W        W 1889   6.226   3.159   6.787
  793W        W 1890   6.840   2.037   1.491
  794W        W 1891   4.746   7.648   6.686
  795W        W 1892   1.311   2.704   1.901
  796W        W 1893   5.397   2.054   0.944
  797W        W 1894   6.285   2.643   0.354
  798W        W 1895   3.694   0.903   0.452
  799W        W 1896   1.893   0.839   0.304
  800W        W 1897   0.295   2.665   3.303
  801W        W 1898   5.081   3.448   5.746
  802W        W 1899   7.060   2.886   2.249
  803W        W 1900   7.262   3.375   4.721
  804W        W 1901   4.021   3.014   6.903
  805W        W 1902   1.218   0.494   3.184
  806W        W 1903   0.889   0.470   6.247
  807W        W 1904   3.078   3.706   0.687
  808W        W 1905   5.653   2.313   7.951
  809W        W 1906   1.304   4.926   7.471
  810W        W 1907   4.825   4.081   6.240
  811W        W 1908   5.556   0.551   6.714
  812W        W 1909   7.038   6.970   1.620
  813W        W 1910   3.822   4.518   1.635
  814W        W 1911   0.496   5.291   6.603
  815W        W 1912   3.944   7.955   0.814
  816W        W 1913   0.546   3.519   6.411
  817W        W 1914   0.703   1.015   5.857
  818W        W 1915   7.105   6.582   2.538
  819W        W 1916   3.681   1.747   6.533
  820W        W 1917   5.293   4.796   6.354
  821W        W 1918   1.332   0.205   1.773
  822W        W 1919   5.819   7.572   7.811
  823W        W 1920   5.235   5.420   5.229
  824W        W 1921   5.804   2.667   1.240
  825W        W 1922   5.441   2.297   0.320
  826W        W 1923   7.313   0.298   1.797
  827W        W 1924   0.001   1.151   2.642
  828W        W 1925   6.472   4.314   2.496
  829W        W 1926   3.087   7.268   4.331
  830W        W 1927   1.157   0.291   0.019
  831W        W 1928   0.068   3.400   6.557
  832W        W 1929   2.906   7.091   6.429
  833W        W 1930   3.296   3.517   5.610
  834W        W 1931   5.860   4.474   0.835
  835W        W 1932   3.140   5.477   4.628
  836W        W 1933   6.893   6.693   6.422
  837W        W 1934   4.391   2.575   3.360
  838W        W 1935   2.906   6.379   4.289
  839W        W 1936   2.871   6.934   7.424
  840W        W 1937   0.478   0.095   5.483
  841W        W 1938   3.712   2.699   1.305
  842W        W 1939   4.092   2.239   3.547
  843W        W 1940   5.036   3.241   1.043
  844W        W 1941   4.943   4.920   7.811
  845W        W 1942   4.566   3.157   5.852
  846W        W 1943   2.943   6.998   3.799
  847W        W 1944   6.608   1.653   0.232
  848W        W 1945   1.326   5.599   6.604
  849W        W 1946   0.515   7.604   2.725
  850W        W 1947   5.360   4.774   6.942
  851W        W 1948   3.958   6.118   6.932
  852W        W 1949   4.563   5.871   1.652
  853W        W 1950   0.128   4.512   3.746
  854W        W 1951   0.526   5.648   5.930
  855W        W 1952   1.515   2.327   6.240
  856W        W 1953   4.465   5.572   7.382
  857W        W 1954   6.941   6.530   3.030
  858W        W 1955   5.805   4.177   6.037
  859W        W 1956   7.004   1.155   1.234
  860W        W 1957   0.388   3.811   5.758
  861W        W 1958   4.005   3.468   7.190
  862W        W 1959   6.670   0.107   7.514
  863W        W 1960   0.297   4.506   5.010
  864W        W 1961   0.271   4.677   5.534
  865W        W 1962   4.491   2.303   7.446
  866W        W 1963   4.296   4.753   2.859
  867W        W 1964   2.726   5.544   0.325
  868W        W 1965   3.337   2.878   3.083
  869W        W 1966   6.898   1.536   4.724
  870W        W 1967   2.483   1.644   3.901
  871W        W 1968   4.864   5.840   1.046
  872W        W 1969   6.844   3.175   3.995
  873W        W 1970   0.518   3.301   1.767
  874W        W 1971   6.644   6.410   3.846
  875W        W 1972   5.767   1.207   5.472
  876W        W 1973   7.590   5.210   7.218
  877W        W 1974   3.918   3.500   2.945
  878W        W 1975   7.759   4.400   7.436
  879W        W 1976   1.164   0.380   1.302
  880W        W 1977   7.745   7.456   3.841
  881W        W 1978   1.428   5.400   5.470
  882W        W 1979   2.536   2.445   3.485
  883W        W 1980   2.839   4.805   5.160
  884W        W 1981   6.972   6.161   3.542
  885W        W 1982   1.276   5.980   1.156
  886W        W 1983   4.396   0.151   0.998
  887W        W 1984   3.757   0.708   5.103
  888W        W 1985   4.030   5.915   7.447
  889W        W 1986   5.179   7.568   1.086
  890W        W 1987   7.319   5.022   0.938
  891W        W 1988   6.514   6.061   2.216
  892W        W 1989   3.070   4.476   4.871
  893W        W 1990   3.013   2.894   6.527
  894W        W 1991   5.527   2.920   0.879
  895W        W 1992   7.000   1.626   3.893
  896W        W 1993   0.082   5.279   5.631
  897W        W 1994   6.018   0.832   1.040
  898W        W 1995   3.547   2.545   2.758
  899W        W 1996   1.077   0.354   4.798
  900W        W 1997   5.689   2.920   2.350
  901W        W 1998   6.357   6.420   4.224
  902W        W 1999   2.504   2.739   0.926
  903W        W 2000   7.246   1.188   5.668
  904W        W 2001   5.555   0.154   7.125
  905W        W 2002   3.083   2.675   4.172
  906W        W 2003   4.158   4.184   3.586
  907W        W 2004   4.490   2.764   5.433
  908W        W 2005   1.819   5.613   0.564
  909W        W 2006   0.003   4.041   0.383
  910W        W 2007   2.220   4.757   6.135
  911W        W 2008   7.406   6.131   6.248
  912W        W 2009   7.332   7.423   1.373
  913W        W 2010   1.180   6.272   4.569
  914W        W 2011   6.335   6.960   4.023
  915W        W 2012   3.501   0.218   0.224
  916W        W 2013   3.316   5.053   5.264
  917W        W 2014   7.113   1.939   1.921
  918W        W 2015   7.415   4.354   2.392
  919W        W 2016   2.056   1.011   2.319
  920W        W 2017   6.751   7.606   6.813
  921W        W 2018   3.062   5.826   2.898
  922W        W 2019   6.567   3.433   6.491
  923W        W 2020   1.908   5.662   4.953
  924W        W 2021   4.303   6.390   2.982
  925W        W 2022   5.422   4.965   0.270
  926W        W 2023   6.280   6.292   7.885
  927W        W 2024   0.941   6.014   0.318
  928W        W 2025   6.389   7.684   2.789
  929W        W 2026   0.843   4.714   3.298
  930W        W 2027   5.108   6.126   4.576
  931W        W 2028   2.799   3.654   3.432
  932W        W 2029   3.530   7.966   7.123
  933W        W 2030   5.449   3.091   3.041
  934W        W 2031   6.268   4.709   2.901
  935W        W 2032   7.776   5.874   7.021
  936W        W 2033   4.843   4.339   0.739
  937W        W 2034   0.195   1.231   0.158
  938W        W 2035   0.354   7.844   6.757
  939W        W 2036   7.146   0.763   5.058
  940W        W 2037   7.476   2.066   4.116
  941W        W 2038   2.580   4.977   6.336
  942W        W 2039   1.569   5.996   5.173
  943W        W 2040   3.142   6.756   5.561
  944W        W 2041   1.693   3.645   5.545
  945W        W 2042   1.664   3.058   4.620
  946W        W 2043   6.564   2.752   0.738
  947W        W 2044   2.044   4.616   6.907
  948W        W 2045   4.830   4.724   1.087
  949W        W 2046   3.505   2.500   0.225
  950W        W 2047   5.833   5.746   1.482
  951W        W 2048   7.628   3.244   1.543
  952W        W 2049   7.726   2.999   7.922
  953W        W 2050   6.981   4.385   5.350
  954W        W 2051   2.470   5.045   6.798
  955W        W 2052   2.699   4.150   4.825
  956W        W 2053   0.897   3.350   1.464
  957W        W 2054   3.471   5.128   2.408
  958W        W 2055   1.622   3.374   2.600
  959W        W 2056   4.354   7.543   3.313
  960W        W 2057   7.034   5.787   3.834
  961W        W 2058   3.507   3.142   5.294
  962W        W 2059   5.145   6.054   6.881
  963W        W 2060   3.004   0.352   0.136
  964W        W 2061   5.241   3.473   4.395
  965W        W 2062   4.364   0.457   7.512
  966W        W 2063   0.452   4.205   7.641
  967W        W 2064   5.168   0.548   2.339
  968W        W 2065   1.032   4.046   6.922
  969W        W 2066   4.476   0.410   1.428
  970W        W 2067   2.368   6.709   7.733
  971W        W 2068   5.465   5.845   0.242
  972W        W 2069   3.378   4.676   0.238
  973W        W 2070   5.398   2.125   6.481
  974W        W 2071   4.562   1.263   0.791
  975W        W 2072   1.465   6.290   7.881
  976W        W 2073   2.826   6.337   7.059
  977W        W 2074   4.891   6.400   5.183
  978W        W 2075   2.804   7.722   6.385
  979W        W 2076   0.775   7.207   6.385
  980W        W 2077   1.403   1.589   1.921
  981W        W 2078   1.342   1.666   2.598
  982W        W 2079   2.191   2.901   7.545
  983W        W 2080   6.060   1.427   2.206
  984W        W 2081   5.338   1.827   0.456
  985W        W 2082   1.834   0.195   2.522
  986W        W 2083   6.239   7.300   5.351
  987W        W 2084   0.777   3.832   3.508
  988W        W 2085   5.149   6.670   6.909
  989W        W 2086   6.085   1.512   6.300
  990W        W 2087   7.465   2.577   3.265
  991W        W 2088   6.087   1.336   3.709
  992W        W 2089   1.638   2.544   6.727
  993W        W 2090   0.385   4.034   4.797
  994W        W 2091   0.242   4.853   3.310
  995W        W 2092   3.665   3.092   5.783
  996W        W 2093   5.309   6.489   1.442
  997W        W 2094   3.938   1.744   6.996
  998W        W 2095   0.524   3.550   3.870
  999W        W 2096   0.786   3.743   2.892
 1000W        W 2097   4.999   6.683   5.574
 1001W        W 2098   1.681   4.256   4.748
 1002W        W 2099   0.938   1.418   6.009
 1003W        W 2100   5.440   4.797   3.544
 1004W        W 2101   4.939   7.991   5.248
 1005W        W 2102   4.667   0.450   5.005
 1006W        W 2103   0.559   1.736   5.308
 1007W        W 2104   5.143   1.691   1.760
 1008W        W 2105   3.360   2.001   4.042
 1009W        W 2106   1.248   6.889   3.215
 1010W        W 2107   4.866   2.164   0.978
 1011W        W 2108   7.818   0.030   0.051
 1012W        W 2109   1.154   2.878   1.361
 1013W        W 2110   1.303   5.078   1.776
 1014W        W 2111   0.217   5.175   1.127
 1015W        W 2112   2.460   5.193   5.213
 1016W        W 2113   3.241   7.779   2.356
 1017W        W 2114   6.462   0.782   4.379
 1018W        W 2115   5.998   1.762   4.130
 1019W        W 2116   1.353   3.223   6.577
 1020W        W 2117   2.632   3.609   0.299
 1021W        W 2118   6.247   1.885   2.814
 1022W        W 2119   0.016   0.103   4.674
 1023W        W 2120   0.791   3.735   5.499
 1024W        W 2121   1.278   1.701   4.585
 1025W        W 2122   6.061   1.630   1.049
 1026W        W 2123   4.359   1.204   1.277
 1027W        W 2124   7.505   0.577   6.032
 1028W        W 2125   4.863   6.071   2.328
 1029W        W 2126   6.980   3.724   5.751
 1030W        W 2127   7.267   0.286   3.432
 1031W        W 2128   0.667   1.209   3.347
 1032W        W 2129   6.712   4.690   7.639
 1033W        W 2130   3.201   5.503   0.365
 1034W        W 2131   3.084   1.142   1.986
 1035W        W 2132   0.985   5.964   3.333
 1036W        W 2133   6.265   4.431   5.015
 1037W        W 2134   3.817   0.298   5.391
 1038W        W 2135   2.476   0.913   7.524
 1039W        W 2136   6.121   3.427   7.186
 1040W        W 2137   4.966   3.303   3.037
 1041W        W 2138   7.453   2.320   5.309
 1042W        W 2139   2.261   0.455   0.278
 1043W        W 2140   5.950   2.835   4.406
 1044W        W 2141   3.496   0.941   7.629
 1045W        W 2142   3.276   2.798   1.962
 1046W        W 2143   3.938   4.747   0.571
 1047W        W 2144   3.676   6.414   3.541
 1048W        W 2145   0.629   1.559   1.554
 1049W        W 2146   5.639   1.258   2.512
 1050W        W 2147   3.073   6.453   2.278
 1051W        W 2148   1.672   7.002   0.107
 1052W        W 2149   4.136   5.789   0.177
 1053W        W 2150   6.582   2.142   0.206
 1054W        W 2151   3.323   6.757   7.436
 1055W        W 2152   7.066   7.436   4.566
 1056W        W 2153   7.386   2.328   6.003
 1057W        W 2154   4.897   3.388   6.199
 1058W        W 2155   3.152   1.405   6.034
 1059W        W 2156   4.086   7.244   4.600
 1060W        W 2157   6.495   5.484   0.012
 1061W        W 2158   0.973   2.798   0.005
 1062W        W 2159   2.719   3.061   6.067
 1063W        W 2160   0.311   2.970   6.510
 1064W        W 2161   3.989   1.950   5.393
 1065W        W 2162   4.207   2.560   7.067
 1066W        W 2163   3.163   6.994   1.347
 1067W        W 2164   3.157   2.765   4.711
 1068W        W 2165   7.860   4.910   5.399
 1069W        W 2166   6.256   1.267   4.194
 1070W        W 2167   3.739   5.514   1.710
 1071W        W 2168   3.727   2.511   2.244
 1072W        W 2169   2.640   2.948   4.716
 1073W        W 2170   2.232   2.089   3.938
 1074W        W 2171   5.287   2.289   7.423
 1075W        W 2172   7.015   5.663   5.231
 1076W        W 2173   5.105   5.474   6.177
 1077W        W 2174   7.078   6.166   5.351
 1078W        W 2175   6.122   1.669   0.272
 1079W        W 2176   7.264   2.924   4.477
 1080W        W 2177   4.618   4.853   5.774
 1081W        W 2178   5.446   0.715   3.238
 1082W        W 2179   1.736   7.025   0.934
 1083W        W 2180   4.487   5.108   6.605
 1084W        W 2181   3.494   1.117   5.266
 1085W        W 2182   6.668   2.283   5.422
 1086W        W 2183   7.317   2.931   5.472
 1087W        W 2184   3.832   3.164   3.826
 1088W        W 2185   4.167   7.871   5.845
 1089W        W 2186   0.744   0.647   3.507
 1090W        W 2187   1.061   2.166   6.440
 1091W        W 2188   1.456   6.088   6.783
 1092W        W 2189   2.224   4.029   1.619
 1093W        W 2190   6.049   4.942   5.816
 1094W        W 2191   4.093   7.270   4.077
 1095W        W 2192   4.486   1.512   3.592
 1096W        W 2193   6.821   2.684   4.519
 1097W        W 2194   0.176   4.104   4.233
 1098W        W 2195   4.662   3.662   5.389
 1099W        W 2196   3.102   2.998   5.602
 1100W        W 2197   2.564   0.491   4.434
 1101W        W 2198   6.150   4.255   5.563
 1102W        W 2199   0.834   4.074   5.082
 1103W        W 2200   1.649   2.257   0.717
 1104W        W 2201   3.816   3.033   2.810
 1105W        W 2202   7.100   3.206   5.790
 1106W        W 2203   7.677   5.164   1.867
 1107W        W 2204   0.980   6.467   3.292
 1108W        W 2205   3.674   6.573   5.610
 1109W        W 2206   6.041   4.914   7.650
 1110W        W 2207   4.399   2.224   1.137
 1111W        W 2208   6.991   5.747   0.853
 1112W        W 2209   3.953   0.469   0.623
 1113W        W 2210   7.739   5.277   1.321
 1114W        W 2211   5.560   2.026   4.787
 1115W        W 2212   5.736   6.995   6.161
 1116W        W 2213   0.921   6.228   2.177
 1117W        W 2214   1.817   7.156   7.400
 1118W        W 2215   1.042   6.311   7.583
 1119W        W 2216   1.148   4.542   6.912
 1120W        W 2217   4.388   0.124   0.498
 1121W        W 2218   6.891   5.013   7.314
 1122W        W 2219   4.201   3.828   2.580
 1123W        W 2220   6.918   4.515   6.020
 1124W        W 2221   6.321   3.066   5.216
 1125W        W 2222   7.212   6.156   2.290
 1126W        W 2223   4.420   4.149   5.220
 1127W        W 2224   6.741   2.980   6.628
 1128W        W 2225   5.777   5.716   7.713
 1129W        W 2226   1.910   7.212   0.497
 1130W        W 2227   2.532   6.671   0.820
 1131W        W 2228   4.139   7.036   1.675
 1132W        W 2229   2.492   6.273   2.169
 1133W        W 2230   2.663   7.517   0.802
 1134W        W 2231   3.737   2.660   6.034
 1135W        W 2232   6.420   2.814   4.139
 1136W        W 2233   2.111   3.553   1.486
 1137W        W 2234   6.219   5.873   6.812
 1138W        W 2235   2.025   3.961   7.673
 1139W        W 2236   5.243   3.528   3.408
 1140W        W 2237   3.781   0.367   1.725
 1141W        W 2238   4.343   4.692   5.384
 1142W        W 2239   7.508   0.166   2.258
 1143W        W 2240   4.344   3.901   3.061
 1144W        W 2241   1.347   6.122   2.686
 1145W        W 2242   2.514   3.844   0.708
 1146W        W 2243   2.943   0.783   2.344
 1147W        W 2244   4.079   6.023   4.351
 1148W        W 2245   4.425   1.954   7.083
 1149W        W 2246   3.688   2.512   3.309
 1150W        W 2247   0.591   5.175   3.517
 1151W        W 2248   4.496   2.126   2.183
 1152W        W 2249   4.290   5.304   1.647
 1153W        W 2250   5.587   2.360   1.548
 1154W        W 2251   3.663   0.579   3.519
 1155W        W 2252   3.412   2.518   6.484
 1156W        W 2253   0.347   5.778   5.098
 1157W        W 2254   4.602   2.448   0.681
 1158W        W 2255   0.176   3.893   3.716
 1159W        W 2256   2.342   0.988   4.635
 1160W        W 2257   6.455   5.133   2.675
 1161W        W 2258   3.810   5.574   0.861
 1162W        W 2259   5.481   0.448   7.577
 1163W        W 2260   4.876   1.732   6.991
 1164W        W 2261   0.850   0.708   2.890
 1165W        W 2262   0.172   5.419   6.260
 1166W        W 2263   1.607   3.627   7.575
 1167W        W 2264   4.993   6.619   1.777
 1168W        W 2265   0.447   3.259   0.140
 1169W        W 2266   6.302   6.449   0.468
 1170W        W 2267   2.023   4.775   4.566
 1171W        W 2268   3.927   1.219   1.525
 1172W        W 2269   5.914   2.344   3.234
 1173W        W 2270   1.936   7.458   1.801
 1174W        W 2271   2.946   3.010   7.081
 1175W        W 2272   3.607   4.399   5.713
 1176W        W 2273   6.651   4.122   5.875
 1177W        W 2274   3.650   1.181   5.817
 1178W        W 2275   6.839   0.103   0.252
 1179W        W 2276   3.229   2.330   2.286
 1180W        W 2277   1.304   2.260   7.257
 1181W        W 2278   0.355   6.905   2.535
 1182W        W 2279   1.998   4.181   3.126
 1183W        W 2280   6.060   5.321   2.393
 1184W        W 2281   3.696   3.430   6.748
 1185W        W 2282   5.217   4.981   5.881
 1186W        W 2283   0.594   0.090   6.022
 1187W        W 2284   5.230   5.305   1.880
 1188W        W 2285   4.184   5.626   5.296
 1189W        W 2286   5.754   4.647   7.351
 1190W        W 2287   3.596   2.501   0.732
 1191W        W 2288   0.936   4.322   6.089
 1192W        W 2289   0.833   7.622   6.778
 1193W        W 2290   4.062   5.318   4.870
 1194W        W 2291   2.040   0.260   5.024
 1195W        W 2292   3.889   6.723   7.542
 1196W        W 2293   1.014   0.208   4.188
 1197W        W 2294   0.862   6.538   0.251
 1198W        W 2295   5.894   7.172   3.957
 1199W        W 2296   1.124   3.015   2.735
 1200W        W 2297   0.300   4.453   6.463
 1201W        W 2298   3.539   4.136   4.956
 1202W        W 2299   1.384   3.156   1.782
 1203W        W 2300   0.285   5.537   3.614
 1204W        W 2301   0.325   0.641   1.620
 1205W        W 2302   4.457   7.728   5.363
 1206W        W 2303   5.461   4.541   2.447
 1207W        W 2304   0.517   7.623   7.632
 1208W        W 2305   3.356   7.307   0.143
 1209W        W 2306   5.951   7.552   2.617
 1210W        W 2307   4.165   0.077   3.431
 1211W        W 2308   0.764   5.254   4.025
 1212W        W 2309   7.025   4.993   6.147
 1213W        W 2310   2.686   1.844   5.857
 1214W        W 2311   1.355   0.207   2.311
 1215W        W 2312   4.323   6.866   3.803
 1216W        W 2313   6.591   2.008   1.994
 1217W        W 2314   2.815   2.610   7.300
 1218W        W 2315   6.963   0.777   3.486
 1219W        W 2316   5.027   1.383   6.502
 1220W        W 2317   3.985   7.425   0.898
 1221W        W 2318   5.171   7.381   2.880
 1222W        W 2319   0.061   1.487   5.192
 1223W        W 2320   4.114   0.242   2.343
 1224W        W 2321   4.686   0.030   7.445
 1225W        W 2322   2.811   2.637   5.717
 1226W        W 2323   5.301   0.539   0.683
 1227W        W 2324   3.173   1.837   7.517
 1228W        W 2325   0.429   5.027   5.229
 1229W        W 2326   7.601   7.132   5.439
 1230W        W 2327   1.914   4.956   0.181
 1231W        W 2328   5.814   0.605   7.206
 1232W        W 2329   5.515   3.154   0.293
 1233W        W 2330   5.947   0.852   4.478
 1234W        W 2331   7.072   0.464   5.924
 1235W        W 2332   5.108   5.571   3.873
 1236W        W 2333   6.069   3.507   6.110
 1237W        W 2334   7.708   1.714   7.231
 1238W        W 2335   7.738   1.006   6.227
 1239W        W 2336   3.882   7.454   1.443
 1240W        W 2337   7.136   7.857   5.127
 1241W        W 2338   4.823   2.843   3.268
 1242W        W 2339   3.943   0.452   6.544
 1243W        W 2340   7.671   4.616   1.903
 1244W        W 2341   4.984   0.197   5.627
 1245W        W 2342   2.006   2.364   7.588
 1246W        W 2343   1.266   3.859   5.422
 1247W        W 2344   4.074   1.852   1.220
 1248W        W 2345   2.767   6.856   2.116
 1249W        W 2346   1.776   3.968   1.882
 1250W        W 2347   1.433   6.839   5.911
 1251W        W 2348   3.873   2.918   0.695
 1252W        W 2349   3.132   5.419   7.093
 1253W        W 2350   5.136   5.654   2.250
 1254W        W 2351   5.669   0.753   6.255
 1255W        W 2352   2.224   1.472   2.370
 1256W        W 2353   2.176   6.495   3.556
 1257W        W 2354   3.637   6.393   4.251
 1258W        W 2355   2.105   6.729   6.482
 1259W        W 2356   6.740   4.741   2.733
 1260W        W 2357   2.082   3.323   4.749
 1261W        W 2358   5.952   6.594   1.539
 1262W        W 2359   1.833   4.741   7.357
 1263W        W 2360   2.922   5.931   5.199
 1264W        W 2361   5.128   4.140   2.311
 1265W        W 2362   4.899   1.989   5.242
 1266W        W 2363   5.590   6.386   6.761
 1267W        W 2364   1.693   7.448   6.320
 1268W        W 2365   0.718   1.108   1.178
 1269W        W 2366   5.579   3.161   7.796
 1270W        W 2367   4.543   5.476   0.451
 1271W        W 2368   4.908   4.412   5.364
 1272W        W 2369   7.587   5.823   0.334
 1273W        W 2370   7.290   1.129   3.799
 1274W        W 2371   3.714   2.040   1.465
 1275W        W 2372   3.796   6.571   6.955
 1276W        W 2373   7.591   2.620   1.561
 1277W        W 2374   1.116   5.761   4.478
 1278W        W 2375   5.633   5.043   6.633
 1279W        W 2376   7.688   3.141   4.289
 1280W        W 2377   3.902   6.224   5.291
 1281W        W 2378   7.548   7.130   7.445
 1282W        W 2379   4.078   6.811   1.228
 1283W        W 2380   7.313   4.817   7.484
 1284W        W 2381   7.388   6.661   7.393
 1285W        W 2382   2.617   2.730   5.294
 1286W        W 2383   0.529   5.970   3.629
 1287W        W 2384   1.082   5.121   3.580
 1288W        W 2385   1.351   0.689   0.338
 1289W        W 2386   0.785   4.239   2.560
 1290W        W 2387   5.822   4.122   0.417
 1291W        W 2388   0.559   3.992   6.820
 1292W        W 2389   1.324   3.160   2.276
 1293W        W 2390   1.894   1.102   7.970
 1294W        W 2391   2.800   4.596   3.966
 1295W        W 2392   4.534   1.931   3.184
 1296W        W 2393   1.318   0.987   7.823
 1297W        W 2394   5.336   6.642   0.219
 1298W        W 2395   5.751   4.630   2.029
 1299W        W 2396   5.462   7.445   5.905
 1300W        W 2397   3.398   6.171   5.759
 1301W        W 2398   5.394   7.332   3.924
 1302W        W 2399   1.932   6.657   7.394
 1303W        W 2400   5.947   3.208   1.205
 1304W        W 2401   3.313   3.006   6.108
 1305W        W 2402   7.018   4.293   7.774
 1306W        W 2403   5.677   0.823   1.485
 1307W        W 2404   0.181   0.313   7.472
 1308W        W 2405   4.061   5.772   6.440
 1309W        W 2406   4.046   2.412   5.076
 1310W        W 2407   7.788   3.530   1.096
 1311W        W 2408   0.514   7.411   3.602
 1312W        W 2409   1.272   7.091   6.285
 1313W        W 2410   6.957   3.770   7.577
 1314W        W 2411   3.530   0.381   6.928
 1315W        W 2412   3.573   2.011   3.508
 1316W        W 2413   7.941   6.739   7.309
 1317W        W 2414   3.708   0.045   6.418
 1318W        W 2415   5.034   1.272   4.762
 1319W        W 2416   4.089   2.308   3.037
 1320W        W 2417   3.429   0.065   4.510
 1321W        W 2418   6.949   0.172   3.822
 1322W        W 2419   1.038   3.576   7.433
 1323W        W 2420   2.652   5.645   1.216
 1324W        W 2421   6.126   6.337   3.747
 1325W        W 2422   2.175   1.295   1.874
 1326W        W 2423   1.999   3.934   4.185
 1327W        W 2424   3.957   7.669   5.072
 1328W        W 2425   6.848   5.103   3.094
 1329W        W 2426   5.235   1.803   2.756
 1330W        W 2427   1.685   1.293   0.421
 1331W        W 2428   3.094   5.313   2.624
 1332W        W 2429   7.130   4.711   6.527
 1333W        W 2430   5.257   2.207   6.949
 1334W        W 2431   1.963   6.059   5.524
 1335W        W 2432   0.439   1.282   2.433
 1336W        W 2433   0.256   3.930   1.979
 1337W        W 2434   0.659   7.191   4.113
 1338W        W 2435   7.192   2.343   1.678
 1339W        W 2436   0.855   0.673   0.025
 1340W        W 2437   1.077   4.228   4.581
 1341W        W 2438   5.578   0.261   5.410
 1342W        W 2439   2.568   4.130   3.144
 1343W        W 2440   3.880   1.009   3.305
 1344W        W 2441   3.349   0.740   2.617
 1345W        W 2442   3.414   0.026   3.754
 1346W        W 2443   1.204   1.112   5.672
 1347W        W 2444   4.636   3.366   0.664
 1348W        W 2445   5.867   1.910   6.439
 1349W        W 2446   6.972   4.184   3.358
 1350W        W 2447   1.757   5.758   2.386
 1351W        W 2448   4.545   0.159   7.952
 1352W        W 2449   2.785   0.380   0.604
 1353W        W 2450   7.453   7.326   6.059
 1354W        W 2451   4.467   7.370   2.231
 1355W        W 2452   5.881   6.534   6.110
 1356W        W 2453   4.576   5.573   6.286
 1357W        W 2454   4.989   5.452   0.756
 1358W        W 2455   4.415   1.467   7.041
 1359W        W 2456   7.622   2.966   7.407
 1360W        W 2457   0.696   0.010   4.939
 1361W        W 2458   2.370   4.307   4.069
 1362W        W 2459   3.922   7.605   7.838
 1363W        W 2460   5.764   6.814   0.460
 1364W        W 2461   0.607   5.107   5.786
 1365W        W 2462   4.776   6.357   6.772
 1366W        W 2463   5.685   5.510   5.672
 1367W        W 2464   6.651   7.169   3.600
 1368W        W 2465   7.032   1.800   7.258
 1369W        W 2466   7.466   0.457   7.432
 1370W        W 2467   5.107   0.975   1.586
 1371W        W 2468   2.976   2.602   0.038
 1372W        W 2469   6.839   7.828   2.078
 1373W        W 2470   7.414   3.625   6.082
 1374W        W 2471   7.444   6.258   6.994
 1375W        W 2472   0.981   1.980   6.889
 1376W        W 2473   4.291   7.260   5.202
 1377W        W 2474   1.571   0.159   3.661
 1378W        W 2475   2.094   1.166   2.820
 1379W        W 2476   4.369   0.714   2.394
 1380W        W 2477   4.646   5.944   7.121
 1381W        W 2478   7.515   7.059   1.667
 1382W        W 2479   5.632   6.273   0.555
 1383W        W 2480   7.772   5.007   2.868
 1384W        W 2481   0.832   7.449   1.820
 1385W        W 2482   6.322   5.740   3.160
 1386W        W 2483   2.543   3.552   1.080
 1387W        W 2484   1.489   3.457   3.598
 1388W        W 2485   7.830   0.337   1.667
 1389W        W 2486   7.209   1.608   1.007
 1390W        W 2487   7.819   2.425   0.823
 1391W        W 2488   7.684   3.770   1.542
 1392W        W 2489   1.791   1.401   2.178
 1393W        W 2490   7.616   1.182   4.268
 1394W        W 2491   4.175   5.704   2.109
 1395W        W 2492   3.777   5.363   5.362
 1396W        W 2493   0.557   0.767   0.837
 1397W        W 2494   7.396   2.144   2.285
 1398W        W 2495   2.719   4.465   6.255
 1399W        W 2496   3.286   1.367   7.418
 1400W        W 2497   6.292   1.655   3.345
 1401W        W 2498   4.249   5.123   3.707
 1402W        W 2499   6.108   0.476   2.685
 1403W        W 2500   5.746   0.169   2.180
 1404W        W 2501   0.618   1.067   6.389
 1405W        W 2502   3.487   2.871   3.580
 1406W        W 2503   3.098   0.309   1.107
 1407W        W 2504   0.645   6.649   2.890
 1408W        W 2505   0.532   6.204   3.129
 1409W        W 2506   2.766   0.317   2.755
 1410W        W 2507   3.043   0.357   7.017
 1411W        W 2508   3.017   4.769   2.442
 1412W        W 2509   6.702   1.587   1.012
 1413W        W 2510   7.654   7.606   4.340
 1414W        W 2511   4.595   0.268   3.168
 1415W        W 2512   2.018   2.511   2.460
 1416W        W 2513   6.307   0.071   1.782
 1417W        W 2514   5.339   2.579   3.728
 1418W        W 2515   2.529   5.449   6.412
 1419W        W 2516   7.373   3.802   3.851
 1420W        W 2517   2.520   0.357   6.877
 1421W        W 2518   7.254   2.918   6.584
 1422W        W 2519   0.615   4.878   2.424
 1423W        W 2520   0.527   1.313   7.570
 1424W        W 2521   7.116   5.438   7.039
 1425W        W 2522   1.996   0.039   3.378
 1426W        W 2523   7.485   2.874   6.173
 1427W        W 2524   7.608   5.585   6.318
 1428W        W 2525   6.753   7.597   4.938
 1429W        W 2526   3.436   4.257   2.072
 1430W        W 2527   0.624   7.690   4.069
 1431W        W 2528   1.189   5.528   3.936
 1432W        W 2529   3.407   4.553   0.697
 1433W        W 2530   1.650   1.108   1.739
 1434W        W 2531   4.816   2.432   7.080
 1435W        W 2532   0.464   4.182   5.391
 1436W        W 2533   5.085   2.746   4.577
 1437W        W 2534   6.311   1.793   6.945
 1438W        W 2535   4.427   7.403   7.943
 1439W        W 2536   0.710   6.439   5.324
 1440W        W 2537   1.578   0.561   1.513
 1441W        W 2538   0.163   4.900   4.767
 1442W        W 2539   1.390   3.206   7.456
 1443W        W 2540   5.150   3.670   7.039
 1444W        W 2541   5.962   7.482   3.126
 1445W        W 2542   1.789   5.157   2.912
 1446W        W 2543   7.661   4.491   5.009
 1447W        W 2544   2.531   1.020   2.076
 1448W        W 2545   3.016   3.384   3.020
 1449W        W 2546   5.513   6.056   4.835
 1450W        W 2547   1.410   4.579   4.291
 1451W        W 2548   5.463   1.985   5.925
 1452W        W 2549   0.329   1.328   6.700
 1453W        W 2550   1.992   2.594   6.242
 1454W        W 2551   0.177   2.228   6.485
 1455W        W 2552   4.955   7.737   2.542
 1456W        W 2553   4.453   4.650   6.316
 1457W        W 2554   3.162   2.630   5.248
 1458W        W 2555   5.435   6.421   5.905
 1459W        W 2556   6.318   4.527   1.141
 1460W        W 2557   2.795   3.487   5.861
 1461W        W 2558   5.505   4.971   7.689
 1462W        W 2559   5.537   4.004   1.517
 1463W        W 2560   6.639   4.827   0.731
 1464W        W 2561   1.803   5.346   5.932
 1465W        W 2562   3.276   1.815   5.063
 1466W        W 2563   1.989   5.266   3.367
 1467W        W 2564   4.133   0.137   6.210
 1468W        W 2565   1.441   0.409   2.745
 1469W        W 2566   0.576   4.406   7.164
 1470W        W 2567   1.878   5.033   5.482
 1471W        W 2568   5.772   2.401   0.733
 1472W        W 2569   1.765   6.611   2.013
 1473W        W 2570   0.692   1.024   3.893
 1474W        W 2571   7.767   7.646   2.235
 1475W        W 2572   3.205   0.791   3.265
 1476W        W 2573   5.526   5.410   6.960
 1477W        W 2574   1.990   2.427   0.388
 1478W        W 2575   2.868   5.553   4.098
 1479W        W 2576   0.980   5.608   5.702
 1480W        W 2577   5.858   2.253   5.700
 1481W        W 2578   0.274   4.709   0.782
 1482W        W 2579   2.491   4.948   4.695
 1483W        W 2580   2.467   0.548   1.911
 1484W        W 2581   2.116   7.090   7.854
 1485W        W 2582   2.000   6.580   3.082
 1486W        W 2583   1.486   6.327   1.615
 1487W        W 2584   6.531   4.885   2.258
 1488W        W 2585   3.216   3.324   6.769
 1489W        W 2586   2.016   0.649   2.763
 1490W        W 2587   2.458   2.247   5.464
 1491W        W 2588   2.046   1.167   1.366
 1492W        W 2589   0.776   7.026   3.448
 1493W        W 2590   6.257   0.049   7.804
 1494W        W 2591   2.769   2.332   3.953
 1495W        W 2592   2.647   5.507   6.980
 1496W        W 2593   5.881   5.785   2.260
 1497W        W 2594   2.657   2.848   4.251
 1498W        W 2595   7.808   6.537   3.566
 1499W        W 2596   3.516   7.607   4.272
 1500W        W 2597   3.424   6.925   3.613
 1501W        W 2598   0.483   0.297   6.555
 1502W        W 2599   1.912   1.926   2.155
 1503W        W 2600   3.943   1.522   7.879
 1504W        W 2601   4.429   4.711   7.357
 1505W        W 2602   1.396   6.712   7.553
 1506W        W 2603   4.099   3.364   5.994
 1507W        W 2604   7.494   1.191   0.984
 1508W        W 2605   3.853   4.818   0.070
 1509W        W 2606   5.960   1.198   4.977
 1510W        W 2607   5.033   5.651   0.213
 1511W        W 2608   5.166   3.297   2.554
 1512W        W 2609   6.900   2.318   0.600
 1513W        W 2610   1.111   2.459   6.875
 1514W        W 2611   0.302   0.807   6.721
 1515W        W 2612   4.177   4.628   3.946
 1516W        W 2613   5.798   2.784   3.902
 1517W        W 2614   7.073   4.583   3.715
 1518W        W 2615   7.179   3.464   7.307
 1519W        W 2616   4.388   4.202   7.528
 1520W        W 2617   1.875   5.670   2.863
 1521W        W 2618   1.249   4.190   0.839
 1522W        W 2619   4.097   2.644   2.627
 1523W        W 2620   4.638   6.353   5.644
 1524W        W 2621   3.580   3.200   1.064
 1525W        W 2622   3.843   0.785   5.595
 1526W        W 2623   7.330   6.644   5.037
 1527W        W 2624   2.521   4.185   0.344
 1528W        W 2625   3.114   6.868   0.871
 1529W        W 2626   1.413   2.944   7.000
 1530W        W 2627   2.069   7.374   4.854
 1531W        W 2628   0.448   0.638   6.210
 1532W        W 2629   2.584   5.970   4.201
 1533W        W 2630   0.985   4.245   5.589
 1534W        W 2631   7.237   3.157   3.177
 1535W        W 2632   1.110   1.259   3.675
 1536W        W 2633   5.261   0.686   1.193
 1537W        W 2634   4.119   2.395   5.632
 1538W        W 2635   1.037   0.452   5.780
 1539W        W 2636   6.299   6.001   5.856
 1540W        W 2637   1.074   0.291   3.689
 1541W        W 2638   6.143   0.541   2.088
 1542W        W 2639   5.531   6.685   1.928
 1543W        W 2640   2.042   2.409   3.534
 1544W        W 2641   4.395   2.448   3.909
 1545W        W 2642   4.419   0.971   7.169
 1546W        W 2643   0.638   0.525   7.210
 1547W        W 2644   6.034   5.371   2.947
 1548W        W 2645   7.386   3.899   0.274
 1549W        W 2646   3.674   5.952   4.055
 1550W        W 2647   1.230   7.334   0.843
 1551W        W 2648   1.219   1.645   0.593
 1552W        W 2649   6.641   4.362   0.719
 1553W        W 2650   0.890   2.120   4.923
 1554W        W 2651   2.443   6.161   5.267
 1555W        W 2652   1.811   5.290   6.790
 1556W        W 2653   3.406   2.905   0.505
 1557W        W 2654   7.425   4.879   2.271
 1558W        W 2655   4.133   5.179   7.571
 1559W        W 2656   2.783   3.019   2.816
 1560W        W 2657   1.930   7.493   5.355
 1561W        W 2658   1.720   5.963   4.000
 1562W        W 2659   6.384   7.461   3.976
 1563W        W 2660   4.255   5.130   6.119
 1564W        W 2661   6.893   2.676   4.015
 1565W        W 2662   7.152   4.350   2.928
 1566W        W 2663   7.917   1.335   0.567
 1567W        W 2664   0.589   3.749   2.325
 1568W        W 2665   5.467   4.137   5.269
 1569W        W 2666   5.418   6.375   7.265
 1570W        W 2667   4.813   4.765   3.028
 1571W        W 2668   0.153   2.682   0.156
 1572W        W 2669   2.775   4.943   2.837
 1573W        W 2670   2.021   3.080   1.712
 1574W        W 2671   6.124   0.950   6.361
 1575W        W 2672   0.326   0.362   5.032
 1576W        W 2673   4.045   6.518   2.556
 1577W        W 2674   3.916   2.169   2.571
 1578W        W 2675   0.726   0.133   1.450
 1579W        W 2676   4.917   4.577   6.107
 1580W        W 2677   5.090   2.202   1.444
 1581W        W 2678   4.726   6.268   3.282
 1582W        W 2679   2.015   3.447   4.292
 1583W        W 2680   1.862   7.796   7.231
 1584W        W 2681   4.214   6.426   0.818
 1585W        W 2682   0.938   2.908   6.753
 1586W        W 2683   3.070   3.944   5.142
 1587W        W 2684   4.512   0.027   1.725
 1588W        W 2685   0.766   6.490   4.750
 1589W        W 2686   6.610   2.008   7.665
 1590W        W 2687   3.714   6.869   0.295
 1591W        W 2688   4.883   0.308   0.446
 1592W        W 2689   2.308   3.787   7.320
 1593W        W 2690   2.179   4.201   5.958
 1594W        W 2691   4.270   4.141   6.190
 1595W        W 2692   4.616   1.846   1.382
 1596W        W 2693   2.951   1.450   3.834
 1597W        W 2694   1.293   4.122   1.702
 1598W        W 2695   1.364   0.711   1.909
 1599W        W 2696   0.721   5.963   5.409
 1600W        W 2697   0.454   0.381   2.065
 1601W        W 2698   2.170   4.913   3.719
 1602W        W 2699   6.632   3.002   3.596
 1603W        W 2700   5.205   3.388   0.588
 1604W        W 2701   4.296   3.258   4.496
 1605W        W 2702   5.036   3.868   1.023
 1606W        W 2703   3.318   1.371   1.550
 1607W        W 2704   2.112   6.221   4.236
 1608W        W 2705   3.852   3.025   1.763
 1609W        W 2706   6.383   1.554   7.511
 1610W        W 2707   3.671   7.465   4.715
 1611W        W 2708   4.329   4.651   0.978
 1612W        W 2709   0.715   6.990   4.646
 1613W        W 2710   4.883   4.704   7.157
 1614W        W 2711   0.548   2.462   1.569
 1615W        W 2712   4.487   5.047   1.235
 1616W        W 2713   2.172   6.763   0.433
 1617W        W 2714   2.230   5.879   0.403
 1618W        W 2715   1.522   4.102   4.276
 1619W        W 2716   0.988   3.514   5.086
 1620W        W 2717   2.072   5.509   5.415
 1621W        W 2718   4.080   4.237   6.683
 1622W        W 2719   6.735   0.824   0.649
 1623W        W 2720   4.665   1.165   0.297
 1624W        W 2721   0.621   6.282   2.585
 1625W        W 2722   4.929   5.654   6.654
 1626W        W 2723   4.505   1.092   6.669
 1627W        W 2724   0.290   6.139   6.042
 1628W        W 2725   7.285   7.605   3.871
 1629W        W 2726   6.005   7.506   5.724
 1630W        W 2727   3.982   4.589   2.126
 1631W        W 2728   5.580   7.423   4.392
 1632W        W 2729   5.787   1.949   5.289
 1633W        W 2730   3.972   0.976   2.861
 1634W        W 2731   2.034   0.786   1.824
 1635W        W 2732   2.352   5.459   0.670
 1636W        W 2733   1.368   7.756   1.100
 1637W        W 2734   0.932   1.536   7.806
 1638W        W 2735   1.355   7.960   7.427
 1639W        W 2736   5.969   2.937   7.246
 1640W        W 2737   3.856   3.053   6.327
 1641W        W 2738   7.390   6.099   1.076
 1642W        W 2739   3.657   1.297   6.978
 1643W        W 2740   4.447   4.458   4.385
 1644W        W 2741   6.983   6.902   2.143
 1645W        W 2742   3.076   6.488   3.479
 1646W        W 2743   3.312   3.741   7.089
 1647W        W 2744   3.918   2.826   0.213
 1648W        W 2745   3.806   6.906   2.221
 1649W        W 2746   7.464   4.337   1.413
 1650W        W 2747   1.634   1.361   7.526
 1651W        W 2748   6.781   5.229   7.787
 1652W        W 2749   3.539   2.936   6.742
 1653W        W 2750   0.574   4.829   6.865
 1654W        W 2751   0.809   6.249   6.416
 1655W        W 2752   1.505   1.445   5.910
 1656W        W 2753   2.334   4.612   3.045
 1657W        W 2754   6.421   3.439   1.378
 1658W        W 2755   2.523   3.767   3.990
 1659W        W 2756   5.718   6.797   7.143
 1660W        W 2757   3.156   3.795   2.145
 1661W        W 2758   7.337   2.077   0.571
 1662W        W 2759   7.699   6.299   0.657
 1663W        W 2760   4.276   5.978   5.638
 1664W        W 2761   1.000   2.528   3.516
 1665W        W 2762   5.976   1.385   1.665
 1666W        W 2763   2.449   1.452   6.961
 1667W        W 2764   7.434   7.999   7.757
 1668W        W 2765   3.286   7.186   5.262
 1669W        W 2766   4.507   1.992   3.671
 1670W        W 2767   2.732   1.795   4.676
 1671W        W 2768   0.218   3.341   0.548
 1672W        W 2769   1.149   1.280   0.176
 1673W        W 2770   4.609   3.604   7.491
 1674W        W 2771   6.803   1.985   6.028
 1675W        W 2772   5.795   7.642   5.286
 1676W        W 2773   6.118   6.671   2.613
 1677W        W 2774   1.076   6.421   0.699
 1678W        W 2775   4.283   4.278   0.635
 1679W        W 2776   3.646   5.627   4.519
 1680W        W 2777   0.041   3.567   4.054
 1681W        W 2778   7.584   1.423   3.453
 1682W        W 2779   2.062   0.753   5.628
 1683W        W 2780   6.958   3.903   5.267
 1684W        W 2781   1.268   3.395   4.717
 1685W        W 2782   4.620   4.195   1.225
 1686W        W 2783   0.211   6.146   2.027
 1687W        W 2784   4.886   3.186   5.348
 1688W        W 2785   0.096   0.840   5.805
 1689W        W 2786   3.081   6.574   6.422
 1690W        W 2787   0.478   5.827   0.451
 1691W        W 2788   5.625   4.828   4.497
 1692W        W 2789   1.130   4.680   3.813
 1693W        W 2790   7.385   6.463   0.108
 1694W        W 2791   0.993   4.627   2.170
 1695W        W 2792   1.239   3.952   2.832
 1696W        W 2793   4.080   1.861   5.925
 1697W        W 2794   6.219   3.480   1.869
 1698W        W 2795   0.039   1.014   4.501
 1699W        W 2796   1.488   3.470   6.015
 1700W        W 2797   5.521   7.260   0.821
 1701W        W 2798   1.212   4.380   1.303
 1702W        W 2799   6.844   4.263   6.637
 1703W        W 2800   1.089   6.075   1.719
 1704W        W 2801   0.263   5.949   2.745
 1705W        W 2802   4.371   5.161   7.115
 1706W        W 2803   2.051   0.698   1.134
 1707W        W 2804   5.958   1.234   0.640
 1708W        W 2805   3.764   1.533   2.223
 1709W        W 2806   5.474   0.387   4.764
 1710W        W 2807   7.461   4.369   3.499
 1711W        W 2808   5.412   4.293   0.654
 1712W        W 2809   5.084   2.527   6.522
 1713W        W 2810   2.245   1.882   6.034
 1714W        W 2811   1.216   2.837   3.160
 1715W        W 2812   7.207   7.464   0.255
 1716W        W 2813   5.989   2.246   0.315
 1717W        W 2814   7.474   4.896   3.837
 1718W        W 2815   0.639   0.516   3.984
 1719W        W 2816   5.772   5.408   1.892
 1720W        W 2817   1.679   3.131   3.960
 1721W        W 2818   4.232   7.719   1.172
 1722W        W 2819   0.231   0.396   6.987
 1723W        W 2820   4.848   2.928   6.281
 1724W        W 2821   1.862   5.139   2.330
 1725W        W 2822   5.347   1.805   7.285
 1726W        W 2823   5.484   5.382   1.431
 1727W        W 2824   2.121   5.639   6.736
 1728W        W 2825   0.173   6.455   2.522
 1729W        W 2826   5.135   4.834   0.711
 1730W        W 2827   3.278   2.746   0.980
 1731W        W 2828   5.340   0.979   6.624
 1732W        W 2829   6.087   0.257   5.507
 1733W        W 2830   1.905   5.102   4.144
 1734W        W 2831   1.514   6.414   4.897
 1735W        W 2832   3.148   2.064   6.582
 1736W        W 2833   7.778   2.212   3.494
 1737W        W 2834   7.014   0.758   5.575
 1738W        W 2835   3.049   3.194   0.397
 1739W        W 2836   7.161   2.308   6.846
 1740W        W 2837   5.751   4.509   2.904
 1741W        W 2838   2.008   2.416   2.989
 1742W        W 2839   6.247   5.436   5.905
 1743W        W 2840   0.508   3.635   5.074
 1744W        W 2841   5.797   3.576   0.022
 1745W        W 2842   6.622   0.755   5.958
 1746W        W 2843   1.246   4.714   4.776
 1747W        W 2844   2.197   0.056   1.894
 1748W        W 2845   2.090   3.210   2.385
 1749W        W 2846   3.004   6.184   6.099
 1750W        W 2847   1.817   4.992   1.822
 1751W        W 2848   4.865   2.099   6.601
 1752W        W 2849   6.064   3.808   1.584
 1753W        W 2850   5.454   0.482   0.221
 1754W        W 2851   3.931   4.829   6.378
 1755W        W 2852   2.298   0.101   5.777
 1756W        W 2853   4.674   1.634   4.049
 1757W        W 2854   3.206   0.200   7.426
 1758W        W 2855   3.348   5.392   4.159
 1759W        W 2856   3.873   3.403   4.280
 1760W        W 2857   2.171   3.129   1.158
 1761W        W 2858   0.761   5.834   1.365
 1762W        W 2859   2.897   5.189   1.945
 1763W        W 2860   0.252   6.321   5.505
 1764W        W 2861   0.999   1.575   1.240
 1765W        W 2862   2.669   5.857   0.711
 1766W        W 2863   1.855   0.008   4.644
 1767W        W 2864   1.808   0.282   6.695
 1768W        W 2865   1.275   3.983   5.953
 1769W        W 2866   4.955   7.670   5.810
 1770W        W 2867   6.068   6.120   1.895
 1771W        W 2868   4.206   1.064   4.467
 1772W        W 2869   3.553   7.069   3.098
 1773W        W 2870   0.902   5.098   5.379
 1774W        W 2871   0.218   5.814   7.459
 1775W        W 2872   7.382   1.826   7.628
 1776W        W 2873   7.585   2.101   4.553
 1777W        W 2874   3.335   7.377   3.873
 1778W        W 2875   6.788   4.567   1.136
 1779W        W 2876   6.986   1.091   7.327
 1780W        W 2877   6.021   2.005   3.662
 1781W        W 2878   2.721   6.087   2.596
 1782W        W 2879   2.496   3.248   1.568
 1783W        W 2880   5.125   4.333   6.740
 1784W        W 2881   3.246   3.966   4.592
 1785W        W 2882   3.987   5.360   6.617
 1786W        W 2883   6.694   0.054   2.632
 1787W        W 2884   4.480   4.619   1.488
 1788W        W 2885   7.046   1.351   2.748
 1789W        W 2886   3.568   5.426   3.695
 1790W        W 2887   1.183   2.925   4.479
 1791W        W 2888   5.804   2.326   4.417
 1792W        W 2889   2.377   6.324   2.837
 1793W        W 2890   2.756   1.468   7.538
 1794W        W 2891   4.930   2.152   0.417
 1795W        W 2892   1.365   5.575   2.878
 1796W        W 2893   5.550   0.934   0.903
 1797W        W 2894   2.230   4.743   2.211
 1798W        W 2895   1.609   5.640   1.037
 1799W        W 2896   6.337   6.748   3.548
 1800W        W 2897   2.731   3.539   2.157
 1801W        W 2898   4.734   1.451   7.433
 1802W        W 2899   5.458   7.250   7.553
 1803W        W 2900   5.494   0.598   4.215
 1804W        W 2901   4.716   6.765   3.543
 1805W        W 2902   1.042   4.241   4.080
 1806W        W 2903   7.744   3.892   3.563
 1807W        W 2904   0.779   0.999   0.453
 1808W        W 2905   5.931   6.818   6.623
 1809W        W 2906   1.308   3.509   7.007
 1810W        W 2907   1.600   0.992   1.243
 1811W        W 2908   1.279   7.200   7.412
 1812W        W 2909   1.781   2.625   1.639
 1813W        W 2910   3.090   7.656   1.864
 1814W        W 2911   1.947   4.569   5.697
 1815W        W 2912   4.389   6.038   6.102
 1816W        W 2913   3.083   3.534   2.502
 1817W        W 2914   5.890   4.705   6.356
 1818W        W 2915   1.229   0.181   0.542
 1819W        W 2916   1.669   5.554   4.272
 1820W        W 2917   1.354   1.459   6.841
 1821W        W 2918   1.082   0.725   7.076
 1822W        W 2919   6.805   6.437   2.152
 1823W        W 2920   3.837   6.798   3.835
 1824W        W 2921   4.247   6.437   7.319
 1825W        W 2922   7.244   0.813   4.263
 1826W        W 2923   2.739   3.922   6.057
 1827W        W 2924   1.421   1.628   3.957
 1828W        W 2925   0.104   6.058   0.834
 1829W        W 2926   5.507   5.082   5.500
 1830W        W 2927   3.947   3.026   4.696
 1831W        W 2928   5.989   6.834   2.167
 1832W        W 2929   1.529   5.814   1.707
 1833W        W 2930   6.769   6.851   5.832
 1834W        W 2931   6.058   0.478   4.867
 1835W        W 2932   4.480   1.822   4.931
 1836W        W 2933   4.725   0.042   3.589
 1837W        W 2934   7.475   1.578   0.488
 1838W        W 2935   3.558   2.223   5.276
 1839W        W 2936   1.804   0.351   5.506
 1840W        W 2937   6.088   4.661   1.547
 1841W        W 2938   5.708   1.903   0.037
 1842W        W 2939   5.630   6.787   1.121
 1843W        W 2940   4.373   0.793   0.964
 1844W        W 2941   4.092   1.777   3.399
 1845W        W 2942   6.258   2.288   0.773
 1846W        W 2943   7.704   1.951   6.328
 1847W        W 2944   5.886   0.027   5.063
 1848W        W 2945   0.372   2.585   6.091
 1849W        W 2946   0.018   7.813   7.121
 1850W        W 2947   1.520   5.386   2.095
 1851W        W 2948   1.019   1.694   5.050
 1852W        W 2949   2.013   0.075   6.290
 1853W        W 2950   7.083   1.412   3.457
 1854W        W 2951   2.583   0.053   0.162
 1855W        W 2952   7.267   2.039   4.888
 1856W        W 2953   7.338   6.605   1.920
 1857W        W 2954   5.544   1.009   4.693
 1858W        W 2955   1.641   7.805   5.591
 1859W        W 2956   5.860   1.826   3.177
 1860W        W 2957   4.464   2.025   0.416
 1861W        W 2958   1.119   1.322   1.653
 1862W        W 2959   1.498   6.300   7.258
 1863W        W 2960   7.814   6.561   6.840
 1864W        W 2961   4.960   4.899   5.403
 1865W        W 2962   3.399   1.465   7.873
 1866W        W 2963   0.905   2.939   1.780
 1867W        W 2964   7.490   3.705   5.539
 1868W        W 2965   3.392   6.196   5.279
 1869W        W 2966   6.058   4.792   2.478
 1870W        W 2967   6.084   7.280   4.401
 1871W        W 2968   6.257   2.546   7.049
 1872W        W 2969   4.510   0.641   0.463
 1873W        W 2970   2.786   2.278   2.540
 1874W        W 2971   3.359   7.246   2.620
 1875W        W 2972   1.111   5.001   6.637
 1876W        W 2973   1.914   4.505   0.423
 1877W        W 2974   3.942   5.517   7.113
 1878W        W 2975   2.064   5.285   4.671
 1879W        W 2976   0.980   5.934   6.746
 1880W        W 2977   2.474   4.554   3.569
 1881W        W 2978   4.230   3.791   5.564
 1882W        W 2979   4.058   2.877   5.157
 1883W        W 2980   0.227   0.752   3.516
 1884W        W 2981   2.263   0.605   6.523
 1885W        W 2982   0.232   0.842   4.000
 1886W        W 2983   2.121   3.572   5.233
 1887W        W 2984   2.684   4.019   1.933
 1888W        W 2985   1.815   1.539   3.692
 1889W        W 2986   2.143   5.431   0.147
 1890W        W 2987   6.948   5.099   0.420
 1891W        W 2988   2.827   0.854   6.900
 1892W        W 2989   4.912   7.167   6.819
 1893W        W 2990   7.252   3.724   3.317
 1894W        W 2991   6.930   3.290   1.548
 1895W        W 2992   5.167   2.924   7.698
 1896W        W 2993   6.875   2.443   7.941
 1897W        W 2994   2.224   7.372   2.325
 1898W        W 2995   1.354   6.380   3.694
 1899W        W 2996   0.232   0.326   0.117
 1900W        W 2997   6.595   7.303   4.501
 1901W        W 2998   2.483   2.831   2.485
 1902W        W 2999   7.006   7.441   1.834
 1903W        W 3000   2.497   5.128   0.319
 1904W        W 3001   5.769   2.356   6.202
 1905W        W 3002   4.160   1.781   2.363
 1906W        W 3003   6.145   3.224   7.673
 1907W        W 3004   7.013   5.180   2.507
 1908W        W 3005   2.883   2.815   3.299
 1909W        W 3006   2.329   1.970   4.965
 1910W        W 3007   1.610   4.718   1.373
 1911W        W 3008   1.421   4.692   0.411
 1912W        W 3009   5.711   2.009   6.919
 1913W        W 3010   3.969   2.968   3.260
 1914W        W 3011   0.714   2.734   4.520
 1915W        W 3012   0.895   3.346   2.040
 1916W        W 3013   3.964   0.095   7.596
 1917W        W 3014   0.810   3.740   4.701
 1918W        W 3015   4.173   0.688   4.726
 1919W        W 3016   6.142   3.025   2.139
 1920W        W 3017   0.879   4.754   4.268
 1921W        W 3018   2.978   5.242   6.632
 1922W        W 3019   7.896   6.912   3.206
 1923W        W 3020   5.367   4.123   7.115
 1924W        W 3021   6.887   0.308   4.326
 1925W        W 3022   7.839   1.862   0.694
 1926W        W 3023   2.869   5.454   3.157
 1927W        W 3024   0.456   6.649   3.371
 1928W        W 3025   6.847   7.061   6.775
 1929W        W 3026   6.100   5.880   4.204
 1930W        W 3027   5.428   4.338   6.311
 1931W        W 3028   0.696   2.593   5.201
 1932W        W 3029   4.785   7.683   3.005
 1933W        W 3030   6.052   5.610   7.202
 1934W        W 3031   5.622   2.695   7.608
 1935W        W 3032   5.561   2.458   2.033
 1936W        W 3033   7.213   2.023   6.405
 1937W        W 3034   3.345   1.759   6.980
 1938W        W 3035   7.265   3.383   4.131
 1939W        W 3036   0.897   2.437   1.927
 1940W        W 3037   6.744   5.944   5.570
 1941W        W 3038   5.191   4.403   4.922
 1942W        W 3039   4.155   3.388   0.822
 1943W        W 3040   1.011   4.268   3.553
 1944W        W 3041   4.041   0.098   2.881
 1945W        W 3042   5.980   0.222   6.923
 1946W        W 3043   1.931   5.643   1.890
 1947W        W 3044   5.361   5.747   4.392
 1948W        W 3045   5.443   6.904   6.586
 1949W        W 3046   5.150   4.302   1.191
 1950W        W 3047   2.904   0.136   3.613
 1951W        W 3048   7.346   5.819   4.287
 1952W        W 3049   3.982   0.049   1.331
 1953W        W 3050   0.950   7.602   7.897
 1954W        W 3051   2.175   4.301   4.528
 1955W        W 3052   4.747   2.482   2.916
 1956W        W 3053   5.490   1.311   1.813
 1957W        W 3054   1.715   3.751   2.946
 1958W        W 3055   4.339   5.586   4.381
 1959W        W 3056   3.614   5.681   6.101
 1960W        W 3057   6.375   0.152   3.029
 1961W        W 3058   6.007   2.726   6.585
 1962W        W 3059   5.124   7.519   0.590
 1963W        W 3060   6.940   7.160   3.148
 1964W        W 3061   0.904   0.203   6.894
 1965W        W 3062   6.977   2.464   1.216
 1966W        W 3063   4.050   4.918   1.443
 1967W        W 3064   1.003   7.335   3.802
 1968W        W 3065   6.036   4.268   4.576
 1969W        W 3066   7.041   7.097   7.540
 1970W        W 3067   0.184   4.545   7.415
 1971W        W 3068   3.354   2.013   1.790
 1972W        W 3069   2.768   0.619   3.835
 1973W        W 3070   0.665   0.563   4.547
 1974W        W 3071   1.060   6.492   1.365
 1975W        W 3072   5.555   7.621   7.290
 1976W        W 3073   6.516   0.704   5.207
 1977W        W 3074   7.109   0.781   0.947
 1978W        W 3075   7.685   3.752   0.675
 1979W        W 3076   7.342   4.455   4.127
 1980W        W 3077   0.872   0.546   1.706
 1981W        W 3078   7.572   0.771   0.087
 1982W        W 3079   3.516   5.082   0.621
 1983W        W 3080   5.756   2.698   0.226
 1984W        W 3081   1.899   2.264   4.275
 1985W        W 3082   0.443   7.415   7.157
 1986W        W 3083   1.247   2.453   5.273
 1987W        W 3084   7.451   7.665   4.820
 1988W        W 3085   2.120   6.678   2.532
 1989W        W 3086   6.799   7.672   5.475
 1990W        W 3087   0.806   3.828   6.025
 1991W        W 3088   4.331   5.525   0.889
 1992W        W 3089   2.074   1.051   0.724
 1993W        W 3090   7.492   0.128   5.132
 1994W        W 3091   6.397   7.263   3.116
 1995W        W 3092   5.363   1.553   5.650
 1996W        W 3093   5.110   0.027   7.707
 1997W        W 3094   3.310   5.472   0.875
 1998W        W 3095   5.725   3.801   4.419
 1999W        W 3096   4.911   1.143   4.080
 2000W        W 3097   3.717   5.742   5.093
 2001W        W 3098   4.792   2.132   4.068
 2002W        W 3099   7.123   6.255   4.071
 2003W        W 3100   1.492   0.154   5.789
 2004W        W 3101   2.571   4.005   2.386
 2005W        W 3102   1.078   7.080   2.087
 2006W        W 3103   0.613   0.002   0.178
 2007W        W 3104   6.944   3.436   0.304
 2008W        W 3105   6.871   3.910   6.229
 2009W        W 3106   7.835   2.327   2.343
 2010W        W 3107   2.330   4.349   0.738
 2011W        W 3108   3.010   2.529   6.167
 2012W        W 3109   1.520   3.293   3.084
 2013W        W 3110   5.039   4.198   2.823
 2014W        W 3111   7.788   2.970   6.560
 2015W        W 3112   4.629   6.282   1.933
 2016W        W 3113   6.707   0.517   4.802
 2017W        W 3114   4.422   0.979   3.282
 2018W        W 3115   4.621   4.225   5.770
 2019W        W 3116   1.565   6.430   4.329
 2020W        W 3117   0.408   0.875   3.054
 2021W        W 3118   6.818   5.697   1.894
 2022W        W 3119   4.923   0.493   1.603
 2023W        W 3120   6.733   6.893   7.191
 2024W        W 3121   1.728   0.347   1.988
 2025W        W 3122   1.136   2.339   1.479
 2026W        W 3123   4.916   3.628   2.192
 2027W        W 3124   4.574   7.926   4.492
 2028W        W 3125   6.431   2.981   4.706
 2029W        W 3126   4.453   1.194   1.762
 2030W        W 3127   3.291   6.397   4.633
 2031W        W 3128   6.050   6.236   2.412
 2032W        W 3129   0.132   4.937   6.495
 2033W        W 3130   1.314   4.224   6.464
 2034W        W 3131   5.599   6.659   2.415
 2035W        W 3132   7.719   2.776   5.212
 2036W        W 3133   6.565   1.234   0.507
 2037W        W 3134   6.858   0.999   4.632
 2038W        W 3135   6.632   4.112   7.472
 2039W        W 3136   4.568   6.102   7.586
 2040W        W 3137   4.731   1.141   2.898
 2041W        W 3138   1.793   7.700   4.061
 2042W        W 3139   0.518   0.560   5.704
 2043W        W 3140   7.566   3.554   1.996
 2044W        W 3141   5.144   0.091   0.880
 2045W        W 3142   5.644   4.654   5.854
 2046W        W 3143   6.440   5.876   3.756
 2047W        W 3144   7.455   4.821   1.507
 2048W        W 3145   7.360   2.670   0.803
 2049W        W 3146   7.054   1.237   0.668
 2050W        W 3147   3.747   0.504   7.963
 2051W        W 3148   0.305   2.608   4.757
 2052W        W 3149   3.042   6.882   7.897
 2053W        W 3150   4.836   0.914   2.460
 2054W        W 3151   4.485   1.081   3.947
 2055W        W 3152   7.461   0.564   5.467
 2056W        W 3153   1.196   2.100   3.814
 2057W        W 3154   2.814   2.144   1.301
 2058W        W 3155   7.560   2.897   0.353
 2059W        W 3156   3.531   2.557   3.964
 2060W        W 3157   4.115   3.401   3.527
 2061W        W 3158   4.010   0.363   7.172
 2062W        W 3159   2.665   1.281   2.603
 2063W        W 3160   6.451   7.251   5.908
 2064W        W 3161   4.643   2.299   1.643
 2065W        W 3162   5.734   6.775   3.586
 2066W        W 3163   3.903   3.805   0.033
 2067W        W 3164   1.245   1.892   7.627
 2068W        W 3165   6.143   5.036   1.992
 2069W        W 3166   3.060   7.139   1.803
 2070W        W 3167   0.136   7.306   4.068
 2071W        W 3168   7.712   2.916   1.059
 2072W        W 3169   1.917   1.758   4.161
 2073W        W 3170   4.830   5.991   4.145
 2074W        W 3171   6.005   5.173   6.258
 2075W        W 3172   2.016   3.438   6.221
 2076W        W 3173   6.293   5.731   2.574
 2077W        W 3174   6.619   6.289   4.656
 2078W        W 3175   6.605   0.380   5.674
 2079W        W 3176   6.194   2.331   4.114
 2080W        W 3177   6.335   2.501   4.544
 2081W        W 3178   7.197   7.111   5.707
 2082W        W 3179   3.845   7.229   3.597
 2083W        W 3180   1.483   2.462   2.911
 2084W        W 3181   7.644   1.662   4.360
 2085W        W 3182   2.259   4.979   2.707
 2086W        W 3183   1.927   5.742   3.512
 2087W        W 3184   4.527   7.290   3.814
 2088W        W 3185   4.809   7.388   6.248
 2089W        W 3186   1.508   0.918   0.706
 2090W        W 3187   1.471   1.984   5.645
 2091W        W 3188   6.239   7.153   2.653
 2092W        W 3189   6.896   5.240   6.613
 2093W        W 3190   0.248   6.419   4.520
 2094W        W 3191   5.987   6.706   4.450
 2095W        W 3192   4.150   6.563   3.433
 2096W        W 3193   1.709   3.452   2.051
 2097W        W 3194   5.853   5.479   3.467
 2098W        W 3195   5.027   6.128   3.666
 2099W        W 3196   1.676   0.131   1.333
 2100W        W 3197   6.952   7.493   2.838
 2101W        W 3198   1.542   2.613   4.929
 2102W        W 3199   6.478   7.410   2.230
 2103W        W 3200   2.854   6.739   5.971
 2104W        W 3201   6.433   1.727   2.370
 2105W        W 3202   3.951   3.773   3.846
 2106W        W 3203   3.476   6.216   6.247
 2107W        W 3204   4.144   1.086   0.563
 2108W        W 3205   5.976   4.273   1.778
 2109W        W 3206   4.231   3.468   6.724
 2110W        W 3207   7.483   5.725   2.533
 2111W        W 3208   4.136   3.286   2.536
 2112W        W 3209   0.953   1.296   4.738
 2113W        W 3210   4.059   6.338   7.776
 2114W        W 3211   4.039   0.591   4.170
 2115W        W 3212   2.926   2.115   7.123
 2116W        W 3213   2.477   6.826   2.954
 2117W        W 3214   5.555   3.660   3.024
 2118W        W 3215   2.247   4.159   6.946
 2119W        W 3216   6.106   2.278   6.644
 2120W        W 3217   2.685   5.626   4.663
 2121W        W 3218   7.443   7.093   3.193
 2122W        W 3219   5.739   3.897   4.912
 2123W        W 3220   1.410   4.859   2.240
 2124W        W 3221   4.997   3.088   4.195
 2125W        W 3222   2.423   0.289   3.616
 2126W        W 3223   1.099   2.567   4.093
 2127W        W 3224   1.714   3.865   5.086
 2128W        W 3225   5.251   3.082   4.908
 2129W        W 3226   7.133   3.427   5.196
 2130W        W 3227   3.815   5.509   3.243
 2131W        W 3228   1.780   2.873   2.126
 2132W        W 3229   3.029   1.021   7.718
 2133W        W 3230   6.670   6.111   7.621
 2134W        W 3231   0.292   7.669   4.888
 2135W        W 3232   7.219   4.737   3.237
 2136W        W 3233   7.135   7.534   6.400
 2137W        W 3234   4.574   3.697   5.924
 2138W        W 3235   6.875   3.095   0.971
 2139W        W 3236   5.652   6.236   1.100
 2140W        W 3237   3.218   6.107   1.907
 2141W        W 3238   1.544   0.199   5.038
 2142W        W 3239   1.278   3.882   4.863
 2143W        W 3240   6.966   4.513   7.226
 2144W        W 3241   5.764   7.175   5.399
 2145W        W 3242   4.330   1.230   4.911
 2146W        W 3243   3.341   5.430   3.134
 2147W        W 3244   1.903   2.693   0.976
 2148W        W 3245   5.820   0.175   0.058
 2149W        W 3246   0.478   6.759   5.044
 2150W        W 3247   5.564   5.823   5.305
 2151W        W 3248   4.043   5.097   0.883
 2152W        W 3249   5.302   6.684   0.721
 2153W        W 3250   5.586   1.293   3.450
 2154W        W 3251   0.690   5.426   4.971
 2155W        W 3252   0.700   3.652   7.780
 2156W        W 3253   1.488   5.189   6.388
 2157W        W 3254   1.044   1.307   4.171
 2158W        W 3255   6.523   5.783   7.263
 2159W        W 3256   7.441   5.738   4.790
 2160W        W 3257   0.513   1.830   4.811
 2161W        W 3258   3.101   5.711   1.584
 2162W        W 3259   3.629   3.848   0.435
 2163W        W 3260   0.525   2.920   5.693
 2164W        W 3261   6.967   2.028   1.001
 2165W        W 3262   4.198   2.082   1.728
 2166W        W 3263   2.406   5.881   1.700
 2167W        W 3264   4.833   2.440   3.589
 2168W        W 3265   3.858   0.726   2.009
 2169W        W 3266   1.931   6.158   1.784
 2170W        W 3267   2.208   0.347   1.461
 2171W        W 3268   2.459   0.814   2.590
 2172W        W 3269   7.678   3.352   3.801
 2173W        W 3270   4.835   6.475   6.102
 2174W        W 3271   2.079   7.093   2.774
 2175W        W 3272   0.333   0.955   2.018
 2176W        W 3273   6.668   1.202   5.647
 2177W        W 3274   3.288   3.576   0.228
 2178W        W 3275   5.373   4.605   5.382
 2179W        W 3276   2.251   4.376   7.539
 2180W        W 3277   4.640   3.769   4.008
 2181W        W 3278   1.031   7.581   2.617
 2182W        W 3279   1.216   3.720   3.284
 2183W        W 3280   6.590   5.412   2.234
 2184W        W 3281   6.456   1.651   3.801
 2185W        W 3282   4.944   2.586   4.064
 2186W        W 3283   5.051   0.339   4.028
 2187W        W 3284   3.642   3.473   2.554
 2188W        W 3285   3.650   0.017   5.881
 2189W        W 3286   1.544   5.166   0.676
 2190W        W 3287   4.218   7.699   3.800
 2191W        W 3288   0.378   6.253   4.988
 2192W        W 3289   7.775   6.169   2.697
 2193W        W 3290   6.416   1.033   4.864
 2194W        W 3291   6.368   3.887   6.190
 2195W        W 3292   1.510   2.028   4.292
 2196W        W 3293   0.429   1.961   2.520
 2197W        W 3294   4.657   2.781   7.385
 2198W        W 3295   1.677   1.401   4.370
 2199W        W 3296   2.210   7.171   6.605
 2200W        W 3297   2.523   4.450   1.529
 2201W        W 3298   7.815   3.313   6.166
 2202W        W 3299   7.636   6.668   2.387
 2203W        W 3300   6.046   2.979   1.639
 2204W        W 3301   1.386   7.552   7.050
 2205W        W 3302   3.419   3.750   6.563
 2206W        W 3303   2.489   5.551   3.482
 2207W        W 3304   7.345   7.023   2.639
 2208W        W 3305   1.671   1.758   0.733
 2209W        W 3306   4.665   0.310   2.633
 2210W        W 3307   0.728   5.926   4.751
 2211W        W 3308   7.587   2.137   1.851
 2212W        W 3309   1.426   4.453   7.332
 2213W        W 3310   7.780   3.028   2.000
 2214W        W 3311   5.125   4.773   4.623
 2215W        W 3312   5.635   0.753   5.704
 2216W        W 3313   6.228   5.542   5.016
 2217W        W 3314   6.794   5.913   0.044
 2218W        W 3315   3.983   2.134   7.231
 2219W        W 3316   3.016   0.458   6.063
 2220W        W 3317   7.516   3.142   2.407
 2221W        W 3318   4.122   0.905   3.715
 2222W        W 3319   5.216   2.380   5.041
 2223W        W 3320   3.280   5.508   2.105
 2224W        W 3321   6.948   5.027   1.369
 2225W        W 3322   1.845   4.741   3.263
 2226W        W 3323   7.701   6.138   2.143
 2227W        W 3324   5.475   5.899   7.382
 2228W        W 3325   3.161   6.835   0.380
 2229W        W 3326   4.757   3.484   4.378
 2230W        W 3327   0.737   3.278   4.419
 2231W        W 3328   2.713   1.525   3.347
 2232W        W 3329   6.111   6.953   5.798
 2233W        W 3330   4.017   1.925   0.666
 2234W        W 3331   2.654   5.614   5.578
 2235W        W 3332   0.277   2.676   4.247
 2236W        W 3333   0.895   0.387   2.244
 2237W        W 3334   1.253   7.497   6.562
 2238W        W 3335   2.128   1.851   0.100
 2239W        W 3336   2.124   1.533   0.523
 2240W        W 3337   5.721   2.465   5.275
 2241W        W 3338   7.246   2.710   7.094
 2242W        W 3339   2.497   2.480   7.671
 2243W        W 3340   6.748   0.224   3.354
 2244W        W 3341   7.149   4.594   1.848
 2245W        W 3342   2.365   4.870   1.741
 2246W        W 3343   2.344   5.361   3.023
 2247W        W 3344   5.416   0.299   1.415
 2248W        W 3345   0.714   0.625   1.251
 2249W        W 3346   6.664   1.625   4.260
 2250W        W 3347   6.093   2.588   7.528
 2251W        W 3348   0.735   2.176   3.923
 2252W        W 3349   2.472   4.007   7.906
 2253W        W 3350   0.124   0.319   5.971
 2254W        W 3351   3.785   5.977   1.942
 2255W        W 3352   6.416   1.162   0.953
 2256W        W 3353   0.616   5.456   4.477
 2257W        W 3354   4.770   0.497   1.006
 2258W        W 3355   6.089   6.457   7.037
 2259W        W 3356   4.948   4.407   4.291
 2260W        W 3357   4.021   0.525   1.183
 2261W        W 3358   0.982   5.379   3.104
 2262W        W 3359   1.874   6.790   5.058
 2263W        W 3360   7.388   7.790   0.654
 2264W        W 3361   5.809   3.002   6.001
 2265W        W 3362   1.058   6.603   5.652
 2266W        W 3363   5.939   0.068   0.571
 2267W        W 3364   5.789   1.072   3.986
 2268W        W 3365   1.422   7.697   1.736
 2269W        W 3366   2.571   6.662   5.562
 2270W        W 3367   1.515   5.928   3.133
 2271W        W 3368   0.048   2.331   1.604
 2272W        W 3369   5.876   3.898   5.409
 2273W        W 3370   1.970   3.726   1.046
 2274W        W 3371   6.328   3.468   2.389
 2275W        W 3372   7.739   4.039   4.773
 2276W        W 3373   7.054   3.440   6.324
 2277W        W 3374   0.449   6.542   6.282
 2278W        W 3375   3.318   0.495   0.563
 2279W        W 3376   4.597   5.111   0.743
 2280W        W 3377   1.876   1.648   5.698
 2281W        W 3378   6.973   7.115   6.179
 2282W        W 3379   0.422   0.924   4.851
 2283W        W 3380   3.531   5.749   1.316
 2284W        W 3381   4.475   6.827   5.437
 2285W        W 3382   1.503   1.777   7.208
 2286W        W 3383   6.714   0.337   0.696
 2287W        W 3384   3.046   5.043   3.254
 2288W        W 3385   0.611   1.831   6.543
 2289W        W 3386   6.870   7.807   7.817
 2290W        W 3387   1.387   1.882   1.261
 2291W        W 3388   4.471   3.153   5.026
 2292W        W 3389   2.558   7.414   1.910
 2293W        W 3390   0.105   3.608   2.334
 2294W        W 3391   0.006   4.725   1.240
 2295W        W 3392   5.667   1.540   7.806
 2296W        W 3393   3.560   7.734   1.169
 2297W        W 3394   6.955   5.023   1.962
 2298W        W 3395   2.977   3.056   5.062
 2299W        W 3396   0.345   7.358   4.519
 2300W        W 3397   4.143   5.910   4.855
 2301W        W 3398   6.805   5.598   0.408
 2302W        W 3399   6.976   0.385   5.312
 2303W        W 3400   7.733   5.711   0.834
 2304W        W 3401   2.811   0.996   3.451
 2305W        W 3402   1.947   3.795   2.443
 2306W        W 3403   0.812   1.661   2.568
 2307W        W 3404   4.363   5.885   3.957
 2308W        W 3405   3.529   3.205   7.190
 2309W        W 3406   4.083   5.937   0.694
 2310W        W 3407   5.164   0.648   5.404
 2311W        W 3408   1.649   6.723   0.546
 2312W        W 3409   3.604   2.147   6.891
 2313W        W 3410   1.018   7.369   0.304
 2314W        W 3411   4.168   1.601   1.884
 2315W        W 3412   6.402   2.012   1.215
 2316W        W 3413   7.448   2.473   3.769
 2317W        W 3414   3.027   5.059   0.292
 2318W        W 3415   5.255   0.737   2.779
 2319W        W 3416   5.969   5.424   0.189
 2320W        W 3417   2.864   7.593   2.671
 2321W        W 3418   5.937   4.965   0.338
 2322W        W 3419   0.337   0.353   1.144
 2323W        W 3420   0.361   1.744   7.038
 2324W        W 3421   5.133   6.178   1.843
 2325W        W 3422   4.977   0.911   0.710
 2326W        W 3423   6.980   4.215   0.385
 2327W        W 3424   6.265   4.616   0.497
 2328W        W 3425   0.693   2.947   6.170
 2329W        W 3426   0.556   1.485   3.769
 2330W        W 3427   5.365   5.581   1.020
 2331W        W 3428   5.735   7.279   4.881
 2332W        W 3429   0.565   5.424   2.066
 2333W        W 3430   0.652   7.721   6.337
 2334W        W 3431   5.180   2.272   4.394
 2335W        W 3432   6.424   0.415   7.258
 2336W        W 3433   3.671   0.622   3.031
 2337W        W 3434   2.970   3.943   0.026
 2338W        W 3435   1.914   5.865   0.026
 2339W        W 3436   7.019   2.481   5.075
 2340W        W 3437   1.423   7.909   2.635
 2341W        W 3438   5.348   3.596   5.300
 2342W        W 3439   4.994   5.218   1.131
 2343W        W 3440   2.401   7.662   2.614
 2344W        W 3441   2.027   6.950   7.004
 2345W        W 3442   5.732   7.474   3.623
 2346W        W 3443   7.351   5.460   0.594
 2347W        W 3444   4.112   5.575   5.922
 2348W        W 3445   6.792   3.656   4.180
 2349W        W 3446   4.207   2.737   1.044
 2350W        W 3447   2.364   0.408   5.367
 2351W        W 3448   4.589   4.633   0.505
 2352W        W 3449   7.105   2.168   5.639
 2353W        W 3450   6.606   0.809   6.475
 2354W        W 3451   3.922   1.346   3.645
 2355W        W 3452   7.095   3.638   1.883
 2356W        W 3453   3.593   1.170   1.919
 2357W        W 3454   2.097   5.184   6.334
 2358W        W 3455   5.229   7.800   4.676
 2359W        W 3456   4.772   6.931   2.233
 2360W        W 3457   4.607   1.358   4.465
 2361W        W 3458   4.005   6.727   5.289
 2362W        W 3459   6.422   1.648   5.957
 2363W        W 3460   5.718   2.274   3.918
 2364W        W 3461   5.662   4.097   6.666
 2365W        W 3462   3.058   2.220   2.966
 2366W        W 3463   0.782   4.666   5.703
 2367W        W 3464   5.589   7.199   3.195
 2368W        W 3465   6.210   6.125   0.825
 2369W        W 3466   4.046   4.061   1.727
 2370W        W 3467   3.890   2.319   1.078
 2371W        W 3468   5.753   5.306   4.319
 2372W        W 3469   0.509   3.820   0.246
 2373W        W 3470   0.234   1.455   4.714
 2374W        W 3471   5.437   7.804   5.547
 2375W        W 3472   4.380   7.188   1.236
 2376W        W 3473   1.379   4.820   5.301
 2377W        W 3474   0.570   7.420   0.092
 2378W        W 3475   7.607   1.091   5.214
 2379W        W 3476   1.402   5.197   2.583
 2380W        W 3477   5.702   2.681   2.897
 2381W        W 3478   0.181   7.594   3.207
 2382W        W 3479   0.159   5.154   6.984
 2383W        W 3480   5.437   1.667   5.133
 2384W        W 3481   1.156   7.763   4.077
 2385W        W 3482   2.675   1.722   1.055
 2386W        W 3483   6.451   5.179   0.423
 2387W        W 3484   0.325   7.020   6.262
 2388W        W 3485   4.205   2.435   0.133
 2389W        W 3486   3.630   3.316   3.366
 2390W        W 3487   2.681   5.839   6.015
 2391W        W 3488   1.731   4.155   1.392
 2392W        W 3489   2.871   3.415   5.350
 2393W        W 3490   0.198   5.841   5.600
 2394W        W 3491   6.189   2.807   3.303
 2395W        W 3492   0.083   7.937   2.788
 2396W        W 3493   1.427   7.550   7.745
 2397W        W 3494   2.446   2.640   0.448
 2398W        W 3495   0.281   1.747   3.311
 2399W        W 3496   3.305   6.341   6.872
 2400W        W 3497   3.836   4.279   7.706
 2401W        W 3498   6.428   5.386   6.414
 2402W        W 3499   1.161   0.759   2.502
 2403W        W 3500   4.167   6.508   5.791
 2404W        W 3501   2.758   4.150   3.712
 2405W        W 3502   0.785   0.665   6.697
 2406W        W 3503   3.474   1.128   1.159
 2407W        W 3504   1.960   1.695   1.705
 2408W        W 3505   7.498   5.787   5.313
 2409W        W 3506   3.669   1.598   1.698
 2410W        W 3507   6.566   6.957   1.403
 2411W        W 3508   5.279   4.300   5.811
 2412W        W 3509   2.570   5.866   3.061
 2413W        W 3510   3.566   6.301   0.415
 2414W        W 3511   5.530   4.333   4.443
 2415W        W 3512   1.692   2.810   0.502
 2416W        W 3513   3.939   6.346   6.518
 2417W        W 3514   4.580   5.062   2.598
 2418W        W 3515   4.269   3.752   4.336
 2419W        W 3516   4.038   4.363   2.595
 2420W        W 3517   1.036   2.117   4.309
 2421W        W 3518   1.007   4.147   7.490
 2422W        W 3519   2.507   5.349   1.600
 2423W        W 3520   5.623   3.214   3.584
 2424W        W 3521   4.386   1.266   6.179
 2425W        W 3522   6.120   0.530   5.931
 2426W        W 3523   5.972   0.220   7.443
 2427W        W 3524   7.751   4.845   6.838
 2428W        W 3525   0.706   3.205   5.310
 2429W        W 3526   2.852   5.828   2.154
 2430W        W 3527   1.063   1.896   1.708
 2431W        W 3528   2.323   3.788   5.739
 2432W        W 3529   3.314   3.757   3.485
 2433W        W 3530   7.847   6.382   4.938
 2434W        W 3531   1.524   2.580   4.421
 2435W        W 3532   6.971   1.765   6.738
 2436W        W 3533   3.514   5.623   2.727
 2437W        W 3534   5.407   0.866   7.115
 2438W        W 3535   7.586   2.940   2.819
 2439W        W 3536   6.937   2.368   2.131
 2440W        W 3537   2.582   6.225   0.985
 2441W        W 3538   6.619   1.096   7.711
 2442W        W 3539   2.931   3.060   2.293
 2443W        W 3540   1.123   7.188   4.267
 2444W        W 3541   2.894   2.756   0.642
 2445W        W 3542   4.837   1.539   3.198
 2446W        W 3543   6.963   6.473   7.093
 2447W        W 3544   4.966   7.599   3.900
 2448W        W 3545   2.811   7.005   5.059
 2449W        W 3546   0.876   7.198   7.053
 2450W        W 3547   6.893   5.071   5.193
 2451W        W 3548   5.243   7.000   3.580
 2452W        W 3549   7.417   4.170   5.291
 2453W        W 3550   3.974   5.042   3.227
 2454W        W 3551   6.913   4.042   7.070
 2455W        W 3552   7.155   6.183   7.506
 2456W        W 3553   7.773   5.127   4.943
 2457W        W 3554   6.335   5.809   0.360
 2458W        W 3555   4.944   0.346   4.545
 2459W        W 3556   7.732   1.634   1.085
 2460W        W 3557   1.000   5.871   6.157
 2461W        W 3558   4.285   1.510   0.373
 2462W        W 3559   6.059   7.050   0.013
 2463W        W 3560   2.436   1.738   1.533
 2464W        W 3561   0.779   4.868   6.282
 2465W        W 3562   6.609   2.451   5.908
 2466W        W 3563   5.545   2.630   5.819
 2467W        W 3564   1.404   2.020   2.185
 2468W        W 3565   2.704   7.130   1.074
 2469W        W 3566   2.168   1.323   7.575
 2470W        W 3567   1.284   0.581   5.247
 2471W        W 3568   1.451   5.430   3.326
 2472W        W 3569   1.892   7.075   6.058
 2473W        W 3570   3.305   6.248   3.908
 2474W        W 3571   5.047   1.882   4.796
 2475W        W 3572   2.539   1.081   3.998
 2476W        W 3573   2.725   4.810   0.696
 2477W        W 3574   7.445   5.691   7.374
 2478W        W 3575   5.602   1.385   0.253
 2479W        W 3576   5.429   3.434   7.437
 2480W        W 3577   4.773   4.473   2.067
 2481W        W 3578   0.097   5.353   7.504
 2482W        W 3579   6.928   6.967   5.344
 2483W        W 3580   1.612   1.833   0.224
 2484W        W 3581   4.544   4.298   2.798
 2485W        W 3582   3.662   7.024   7.143
 2486W        W 3583   7.754   2.915   4.730
 2487W        W 3584   1.880   7.500   6.780
 2488W        W 3585   3.397   2.205   7.298
 2489W        W 3586   2.638   5.580   2.656
 2490W        W 3587   6.586   7.082   1.879
 2491W        W 3588   4.848   0.703   3.729
 2492W        W 3589   2.348   4.055   1.148
 2493W        W 3590   0.843   4.232   3.082
 2494W        W 3591   0.961   3.154   7.178
 2495W        W 3592   0.508   2.250   4.451
 2496W        W 3593   6.508   3.033   1.689
 2497W        W 3594   3.253   7.249   7.232
 2498W        W 3595   3.636   7.107   4.286
 2499W        W 3596   1.382   2.455   5.771
 2500W        W 3597   5.668   0.645   2.311
 2501W        W 3598   7.350   7.728   2.054
 2502W        W 3599   1.239   2.793   6.385
 2503W        W 3600   4.636   2.873   3.803
 2504W        W 3601   0.430   5.011   7.394
 2505W        W 3602   0.116   2.283   0.522
 2506W        W 3603   0.863   5.963   2.829
 2507W        W 3604   7.716   4.485   2.925
 2508W        W 3605   3.848   3.998   2.857
 2509W        W 3606   3.340   2.351   1.299
 2510W        W 3607   6.099   2.473   1.796
 2511W        W 3608   7.255   5.264   7.623
 2512W        W 3609   5.504   6.736   7.705
 2513W        W 3610   5.202   0.037   2.373
 2514W        W 3611   4.008   3.318   0.342
 2515W        W 3612   0.901   0.212   2.792
 2516W        W 3613   5.062   5.024   3.872
 2517W        W 3614   0.352   3.961   6.317
 2518W        W 3615   4.134   6.265   2.040
 2519W        W 3616   3.070   7.349   3.021
 2520W        W 3617   5.671   5.060   2.273
 2521W        W 3618   4.417   5.805   3.064
 2522W        W 3619   0.969   1.205   2.800
 2523W        W 3620   0.752   5.058   0.935
 2524W        W 3621   7.356   5.329   4.073
 2525W        W 3622   4.171   6.358   1.576
 2526W        W 3623   5.206   5.593   5.697
 2527W        W 3624   0.825   0.879   2.137
 2528W        W 3625   3.461   1.513   3.831
 2529W        W 3626   4.391   5.286   2.990
 2530W        W 3627   0.189   2.819   5.303
 2531W        W 3628   2.350   6.068   4.704
 2532W        W 3629   4.935   0.979   7.392
 2533W        W 3630   1.185   6.849   3.728
 2534W        W 3631   1.055   2.595   4.830
 2535W        W 3632   5.537   3.055   4.506
 2536W        W 3633   3.793   7.193   5.104
 2537W        W 3634   2.762   6.512   1.723
 2538W        W 3635   1.083   5.656   5.157
 2539W        W 3636   4.510   6.921   4.274
 2540W        W 3637   2.196   0.491   2.292
 2541W        W 3638   3.878   4.063   2.239
 2542W        W 3639   4.292   3.186   5.500
 2543W        W 3640   6.480   6.745   3.036
 2544W        W 3641   6.777   7.642   3.739
 2545W        W 3642   7.490   3.208   7.014
 2546W        W 3643   5.611   6.297   3.644
 2547W        W 3644   1.337   5.535   6.050
 2548W        W 3645   4.681   5.141   7.481
 2549W        W 3646   6.710   6.103   0.598
 2550W        W 3647   4.766   5.849   5.820
 2551W        W 3648   1.903   0.933   3.265
 2552W        W 3649   6.676   2.153   7.067
 2553W        W 3650   0.618   7.271   2.359
 2554W        W 3651   2.197   2.656   1.953
 2555W        W 3652   7.397   1.834   5.380
 2556W        W 3653   5.077   6.977   7.837
 2557W        W 3654   5.399   2.034   2.209
 2558W        W 3655   0.097   1.645   2.686
 2559W        W 3656   1.755   2.388   2.059
 2560W        W 3657   7.627   5.361   6.743
 2561W        W 3658   7.252   4.129   4.787
 2562W        W 3659   6.126   7.167   3.521
 2563W        W 3660   3.113   4.473   1.188
 2564W        W 3661   1.579   4.825   6.908
 2565W        W 3662   0.923   3.950   6.474
 2566W        W 3663   6.915   2.815   1.792
 2567W        W 3664   2.529   0.223   1.072
 2568W        W 3665   2.588   6.705   3.512
 2569W        W 3666   4.226   4.744   6.801
 2570W        W 3667   6.873   1.063   0.166
 2571W        W 3668   1.471   7.468   0.395
 2572W        W 3669   0.900   0.799   4.854
 2573W        W 3670   4.417   7.592   1.710
 2574W        W 3671   3.628   7.147   7.756
 2575W        W 3672   0.275   5.333   4.146
 2576W        W 3673   2.027   1.735   7.303
 2577W        W 3674   6.999   5.985   7.067
 2578W        W 3675   1.845   6.662   7.885
 2579W        W 3676   1.938   6.318   0.345
 2580W        W 3677   3.143   5.886   6.904
 2581W        W 3678   5.227   6.506   2.741
 2582W        W 3679   2.470   7.346   3.011
 2583W        W 3680   2.774   0.661   1.141
 2584W        W 3681   5.895   2.844   5.518
 2585W        W 3682   6.828   7.374   1.374
 2586W        W 3683   5.015   4.413   1.647
 2587W        W 3684   2.377   7.658   3.376
 2588W        W 3685   4.227   7.814   2.319
 2589W        W 3686   3.500   6.059   0.857
 2590W        W 3687   2.778   1.518   2.149
 2591W        W 3688   3.114   0.284   1.877
 2592W        W 3689   3.112   5.929   0.543
 2593W        W 3690   6.688   4.732   0.235
 2594W        W 3691   1.455   7.857   0.155
 2595W        W 3692   1.257   7.387   3.048
 2596W        W 3693   4.750   6.637   7.774
 2597W        W 3694   0.682   6.778   0.893
 2598W        W 3695   0.761   6.207   5.806
 2599W        W 3696   1.941   2.051   5.285
 2600W        W 3697   2.812   0.644   6.459
 2601W        W 3698   1.236   2.223   0.976
 2602W        W 3699   0.268   6.081   1.350
 2603W        W 3700   7.427   2.251   1.110
 2604W        W 3701   4.780   2.316   4.770
 2605W        W 3702   3.384   0.432   5.697
 2606W        W 3703   0.300   2.243   2.072
 2607W        W 3704   7.054   2.484   6.316
 2608W        W 3705   5.241   7.376   6.419
 2609W        W 3706   7.014   4.872   5.627
 2610W        W 3707   7.304   7.566   5.508
 2611W        W 3708   5.210   6.529   3.447
 2612W        W 3709   2.503   3.328   4.440
 2613W        W 3710   3.177   7.439   0.985
 2614W        W 3711   4.221   4.088   4.778
 2615W        W 3712   5.496   6.863   5.721
 2616W        W 3713   1.265   6.610   6.551
 2617W        W 3714   2.670   1.308   1.681
 2618W        W 3715   7.995   4.407   0.012
 2619W        W 3716   1.432   6.112   2.098
 2620W        W 3717   4.557   6.856   5.957
 2621W        W 3718   7.828   4.101   1.053
 2622W        W 3719   5.467   4.236   1.979
 2623W        W 3720   3.857   5.043   7.024
 2624W        W 3721   2.349   3.674   6.796
 2625W        W 3722   7.588   6.424   3.991
 2626W        W 3723   1.563   2.120   1.699
 2627W        W 3724   1.312   3.725   6.570
 2628W        W 3725   3.829   3.872   5.880
 2629W        W 3726   5.725   5.373   5.069
 2630W        W 3727   4.303   6.481   6.838
 2631W        W 3728   4.388   3.358   3.107
 2632W        W 3729   2.069   5.553   3.951
 2633W        W 3730   7.431   1.347   7.389
 2634W        W 3731   2.386   1.780   2.018
 2635W        W 3732   2.782   3.308   4.014
 2636W        W 3733   3.462   4.041   7.919
 2637W        W 3734   5.130   1.191   1.112
 2638W        W 3735   3.890   6.814   6.146
 2639W        W 3736   2.451   1.045   0.253
 2640W        W 3737   0.544   5.485   5.421
 2641W        W 3738   4.003   5.369   0.467
 2642W        W 3739   3.452   6.677   6.000
 2643W        W 3740   5.389   0.482   1.891
 2644W        W 3741   2.878   4.314   0.739
 2645W        W 3742   6.525   1.137   3.432
 2646W        W 3743   1.075   6.621   1.856
 2647W        W 3744   0.939   4.389   0.443
 2648W        W 3745   4.791   4.159   7.194
 2649W        W 3746   5.113   3.858   7.496
 2650W        W 3747   3.123   7.930   0.926
 2651W        W 3748   5.332   0.055   0.376
 2652W        W 3749   4.658   5.974   0.586
 2653W        W 3750   7.689   6.814   0.833
 2654W        W 3751   6.705   0.463   6.850
 2655W        W 3752   7.997   0.619   5.394
 2656W        W 3753   0.723   0.353   7.704
 2657W        W 3754   2.138   5.733   4.407
 2658W        W 3755   6.503   0.341   6.225
 2659W        W 3756   6.703   6.035   2.894
 2660W        W 3757   5.022   0.460   7.970
 2661W        W 3758   4.594   5.518   1.316
 2662W        W 3759   3.846   3.499   2.137
 2663W        W 3760   3.785   3.769   4.648
 2664W        W 3761   5.190   1.025   7.842
 2665W        W 3762   1.686   3.701   0.635
 2666W        W 3763   5.675   0.338   0.975
 2667W        W 3764   5.453   2.644   4.223
 2668W        W 3765   3.707   1.731   7.446
 2669W        W 3766   4.641   0.832   4.653
 2670W        W 3767   1.796   7.496   0.951
 2671W        W 3768   7.297   4.839   4.492
 2672W        W 3769   5.885   2.144   1.156
 2673W        W 3770   7.584   6.276   1.574
 2674W        W 3771   2.254   3.860   6.311
 2675W        W 3772   1.839   6.214   2.803
 2676W        W 3773   5.687   3.382   2.159
 2677W        W 3774   4.016   6.331   0.237
 2678W        W 3775   4.801   5.121   1.656
 2679W        W 3776   3.910   0.086   4.446
 2680W        W 3777   6.373   4.905   7.174
 2681W        W 3778   1.493   0.848   2.986
 2682W        W 3779   0.761   0.940   5.366
 2683W        W 3780   0.982   3.436   3.674
 2684W        W 3781   3.916   3.835   3.337
 2685W        W 3782   7.473   1.552   3.920
 2686W        W 3783   6.432   6.538   1.062
 2687W        W 3784   0.220   1.001   5.359
 2688W        W 3785   0.941   3.356   0.176
 2689W        W 3786   2.667   6.644   2.569
 2690W        W 3787   3.463   1.956   2.433
 2691W        W 3788   0.250   1.530   1.152
 2692W        W 3789   1.844   4.701   2.684
 2693W        W 3790   4.635   5.937   0.069
 2694W        W 3791   4.637   7.129   1.814
 2695W        W 3792   4.674   3.536   2.702
 2696W        W 3793   0.630   6.261   1.041
 2697W        W 3794   5.158   3.024   3.637
 2698W        W 3795   3.817   5.864   3.572
 2699W        W 3796   2.049   2.758   4.720
 2700W        W 3797   2.636   7.239   3.517
 2701W        W 3798   7.444   6.524   6.521
 2702W        W 3799   2.121   2.068   2.654
 2703W        W 3800   2.067   6.578   5.473
 2704W        W 3801   2.512   7.486   5.134
 2705W        W 3802   7.310   4.114   7.364
 2706W        W 3803   5.206   1.422   7.569
 2707W        W 3804   6.491   6.887   2.316
 2708W        W 3805   7.849   5.118   0.833
 2709W        W 3806   2.445   7.618   5.628
 2710W        W 3807   4.318   3.264   4.015
 2711W        W 3808   6.852   3.196   4.480
 2712W        W 3809   6.506   5.397   6.891
 2713W        W 3810   6.516   0.948   7.197
 2714W        W 3811   2.589   0.126   4.024
 2715W        W 3812   3.821   6.636   1.848
 2716W        W 3813   7.194   2.185   2.763
 2717W        W 3814   2.995   7.608   3.578
 2718W        W 3815   0.609   2.654   3.781
 2719W        W 3816   5.207   5.080   7.280
 2720W        W 3817   3.690   2.010   3.009
 2721W        W 3818   5.853   0.378   1.704
 2722W        W 3819   2.337   2.456   4.426
 2723W        W 3820   4.266   5.567   3.487
 2724W        W 3821   7.176   4.189   5.776
 2725W        W 3822   2.282   7.631   6.474
 2726W        W 3823   6.912   6.537   1.504
 2727W        W 3824   3.824   4.257   4.527
 2728W        W 3825   6.551   6.337   3.385
 2729W        W 3826   7.035   2.623   3.040
 2730W        W 3827   7.060   0.992   6.108
 2731W        W 3828   2.876   2.267   4.482
 2732W        W 3829   4.297   1.238   7.592
 2733W        W 3830   5.536   1.543   0.854
 2734W        W 3831   7.716   4.618   6.419
 2735W        W 3832   0.216   2.031   1.173
 2736W        W 3833   1.534   6.012   6.275
 2737W        W 3834   0.617   3.578   1.046
 2738W        W 3835   5.772   2.082   7.512
 2739W        W 3836   7.672   3.288   5.198
 2740W        W 3837   3.922   3.847   5.160
 2741W        W 3838   6.164   0.806   7.529
 2742W        W 3839   6.859   6.702   3.503
 2743W        W 3840   4.176   1.545   6.597
 2744W        W 3841   3.814   1.110   4.758
 2745W        W 3842   2.099   4.948   1.359
 2746W        W 3843   1.979   2.925   5.196
 2747W        W 3844   5.512   3.226   5.652
 2748W        W 3845   3.567   2.859   4.372
 2749W        W 3846   0.837   1.481   6.899
 2750W        W 3847   1.239   6.828   0.948
 2751W        W 3848   3.007   3.151   4.463
 2752W        W 3849   2.301   0.606   3.159
 2753W        W 3850   2.064   7.514   6.003
 2754W        W 3851   6.560   1.717   6.454
 2755W        W 3852   5.200   2.707   0.208
 2756W        W 3853   0.317   2.426   7.364
 2757W        W 3854   0.113   2.912   1.570
 2758W        W 3855   6.683   3.322   2.064
 2759W        W 3856   4.180   1.537   4.027
 2760W        W 3857   0.468   0.338   3.131
 2761W        W 3858   1.134   0.975   3.303
 2762W        W 3859   2.335   1.946   4.406
 2763W        W 3860   3.106   0.945   3.996
 2764W        W 3861   6.253   7.750   4.413
 2765W        W 3862   6.458   6.458   7.333
 2766W        W 3863   1.186   5.948   7.210
 2767W        W 3864   4.661   3.696   6.931
 2768W        W 3865   4.648   5.509   2.021
 2769W        W 3866   3.393   6.711   5.111
 2770W        W 3867   1.514   2.009   6.748
 2771W        W 3868   5.649   6.180   1.642
 2772W        W 3869   0.556   5.789   2.392
 2773W        W 3870   4.463   2.393   4.383
 2774W        W 3871   2.908   0.750   2.849
 2775W        W 3872   6.942   4.132   2.518
 2776W        W 3873   6.941   1.260   5.189
 2777W        W 3874   0.193   4.663   2.090
 2778W        W 3875   6.306   3.879   4.150
 2779W        W 3876   5.298   5.955   6.066
 2780W        W 3877   1.740   0.626   7.870
 2781W        W 3878   6.875   7.217   4.084
 2782W        W 3879   0.961   5.005   7.124
 2783W        W 3880   7.381   6.703   1.307
 2784W        W 3881   7.971   4.394   3.352
 2785W        W 3882   7.875   5.553   3.502
 2786W        W 3883   7.847   5.814   1.770
 2787W        W 3884   4.836   0.853   6.407
 2788W        W 3885   1.339   0.179   6.485
 2789W        W 3886   7.211   5.433   1.623
 2790W        W 3887   1.844   2.214   4.828
 2791W        W 3888   3.966   4.713   7.561
 2792W        W 3889   5.974   6.562   0.828
 2793W        W 3890   1.681   2.878   2.678
 2794W        W 3891   7.958   3.791   7.836
 2795W        W 3892   3.629   0.469   7.455
 2796W        W 3893   1.492   4.113   0.441
 2797W        W 3894   4.536   6.672   1.547
 2798W        W 3895   5.346   3.719   1.866
 2799W        W 3896   7.187   1.433   0.056
 2800W        W 3897   2.957   1.383   7.034
 2801W        W 3898   6.548   6.166   1.709
 2802W        W 3899   0.735   3.389   2.605
 2803W        W 3900   6.677   0.579   0.207
 2804W        W 3901   7.471   6.588   2.948
 2805W        W 3902   6.740   5.774   6.680
 2806W        W 3903   1.848   4.244   7.305
 2807W        W 3904   0.741   7.139   2.825
 2808W        W 3905   7.347   5.199   5.365
 2809W        W 3906   6.027   5.222   5.402
 2810W        W 3907   4.924   7.144   5.798
 2811W        W 3908   1.753   3.227   0.841
 2812W        W 3909   0.011   0.347   6.489
 2813W        W 3910   5.957   1.783   5.860
 2814W        W 3911   4.403   5.594   6.848
 2815W        W 3912   0.038   1.318   7.673
 2816W        W 3913   3.051   6.778   6.892
 2817W        W 3914   1.999   6.453   4.619
 2818W        W 3915   4.345   6.035   1.101
 2819W        W 3916   5.342   1.582   2.248
 2820W        W 3917   7.672   7.282   0.382
 2821W        W 3918   1.700   0.416   3.184
 2822W        W 3919   2.213   7.194   0.983
 2823W        W 3920   6.255   0.468   0.821
 2824W        W 3921   6.146   2.516   3.667
 2825W        W 3922   5.005   1.973   5.732
 2826W        W 3923   3.708   5.585   0.030
 2827W        W 3924   5.793   5.722   6.116
 2828W        W 3925   7.382   5.652   7.936
 2829W        W 3926   4.357   3.115   6.390
 2830W        W 3927   7.555   5.064   6.251
 2831W        W 3928   5.662   0.735   5.122
 2832W        W 3929   3.298   2.570   5.788
 2833W        W 3930   4.943   2.315   2.041
 2834W        W 3931   4.334   2.648   4.820
 2835W        W 3932   3.062   3.244   3.540
 2836W        W 3933   0.322   1.238   0.690
 2837W        W 3934   7.196   4.701   4.959
 2838W        W 3935   7.395   1.030   4.715
 2839W        W 3936   7.669   7.724   6.275
 2840W        W 3937   6.560   6.379   6.363
 2841W        W 3938   3.797   1.379   0.326
 2842W        W 3939   6.368   0.883   3.857
 2843W        W 3940   6.456   0.607   3.388
 2844W        W 3941   3.737   2.173   6.263
 2845W        W 3942   3.023   0.525   4.222
 2846W        W 3943   0.586   1.288   5.096
 2847W        W 3944   7.395   2.613   2.506
 2848W        W 3945   3.339   1.113   0.121
 2849W        W 3946   1.069   6.801   5.081
 2850W        W 3947   3.610   6.196   1.519
 2851W        W 3948   1.576   7.372   4.357
 2852W        W 3949   0.269   3.535   4.534
 2853W        W 3950   4.395   6.037   6.675
 2854W        W 3951   7.734   4.078   4.226
 2855W        W 3952   2.917   0.717   1.827
 2856W        W 3953   7.936   0.045   3.374
 2857W        W 3954   1.687   7.264   1.384
 2858W        W 3955   6.117   7.001   4.924
 2859W        W 3956   4.820   1.380   1.488
 2860W        W 3957   5.654   5.918   6.928
 2861W        W 3958   6.287   3.901   7.209
 2862W        W 3959   6.414   6.968   6.282
 2863W        W 3960   4.299   4.938   0.303
 2864W        W 3961   4.535   3.129   1.100
 2865W        W 3962   6.696   7.099   4.926
 2866W        W 3963   4.623   3.627   1.139
 2867W        W 3964   4.431   3.785   3.552
 2868W        W 3965   5.945   4.666   5.380
 2869W        W 3966   5.071   7.037   0.369
 2870W        W 3967   1.485   7.108   5.036
 2871W        W 3968   7.614   2.536   4.288
 2872W        W 3969   2.879   2.641   1.273
 2873W        W 3970   5.584   6.238   2.162
 2874W        W 3971   3.604   3.791   1.787
 2875W        W 3972   5.474   0.937   0.396
 2876W        W 3973   4.891   3.539   4.947
 2877W        W 3974   4.135   7.007   5.707
 2878W        W 3975   2.626   5.089   2.396
 2879W        W 3976   4.911   2.512   5.450
 2880W        W 3977   5.991   7.197   0.743
 2881W        W 3978   2.566   3.027   0.228
 2882W        W 3979   1.639   2.667   7.350
 2883W        W 3980   1.709   2.541   5.395
 2884W        W 3981   6.757   7.780   4.432
 2885W        W 3982   1.482   4.089   7.696
 2886W        W 3983   7.366   2.889   4.010
 2887W        W 3984   0.833   4.579   5.175
 2888W        W 3985   0.157   5.371   4.594
 2889W        W 3986   0.620   4.815   3.816
 2890W        W 3987   7.425   1.828   6.828
 2891W        W 3988   3.620   1.601   1.189
 2892W        W 3989   6.544   4.202   4.525
 2893W        W 3990   4.818   4.703   6.672
 2894W        W 3991   6.049   3.731   6.692
 2895W        W 3992   7.040   2.248   7.471
 2896W        W 3993   2.837   2.853   1.729
 2897W        W 3994   6.252   2.164   6.140
 2898W        W 3995   5.157   2.816   2.233
 2899W        W 3996   1.168   2.728   7.465
 2900W        W 3997   5.155   7.009   2.498
 2901W        W 3998   5.591   5.385   7.412
 2902W        W 3999   0.816   2.248   7.328
 2903W        W 4000   5.689   2.749   3.395
 2904W        W 4001   6.030   7.377   6.199
 2905W        W 4002   3.940   7.340   2.486
 2906W        W 4003   1.952   6.073   6.014
 2907W        W 4004   3.271   4.436   5.319
 2908W        W 4005   5.992   7.705   1.618
 2909W        W 4006   4.055   2.844   4.184
 2910W        W 4007   3.670   7.549   7.346
 2911W        W 4008   4.697   4.268   4.767
 2912W        W 4009   7.077   2.092   3.833
 2913W        W 4010   4.392   3.644   4.943
 2914W        W 4011   2.018   1.156   6.546
 2915W        W 4012   0.141   1.204   3.687
 2916W        W 4013   2.468   4.585   7.133
 2917W        W 4014   6.267   2.332   7.882
 2918W        W 4015   4.917   6.443   7.328
 2919W        W 4016   0.673   7.302   0.692
 2920W        W 4017   2.490   3.171   5.611
 2921W        W 4018   6.546   1.892   0.675
 2922W        W 4019   1.656   6.815   3.614
 2923W        W 4020   2.814   5.380   0.765
 2924W        W 4021   3.941   3.366   5.051
 2925W        W 4022   6.840   0.130   1.750
 2926W        W 4023   3.847   1.849   3.887
 2927W        W 4024   1.709   4.198   2.667
 2928W        W 4025   2.627   0.199   2.204
 2929W        W 4026   4.598   7.895   6.204
 2930W        W 4027   5.238   3.845   6.036
 2931W        W 4028   6.464   1.507   1.426
 2932W        W 4029   0.529   2.351   0.221
 2933W        W 4030   3.222   3.049   1.437
 2934W        W 4031   1.865   7.054   5.545
 2935W        W 4032   1.870   4.466   4.112
 2936W        W 4033   2.052   2.898   0.179
 2937W        W 4034   4.787   4.708   5.009
 2938W        W 4035   2.206   2.504   5.098
 2939W        W 4036   0.199   2.664   2.385
 2940W        W 4037   4.762   3.283   6.702
 2941W        W 4038   0.011   6.640   2.133
 2942W        W 4039   0.424   4.086   2.870
 2943W        W 4040   4.348   6.071   2.605
 2944W        W 4041   7.746   4.835   3.349
 2945W        W 4042   2.374   0.800   3.608
 2946W        W 4043   7.648   3.556   7.534
 2947W        W 4044   4.329   6.924   2.543
 2948W        W 4045   6.581   2.494   1.553
 2949W        W 4046   0.096   2.253   4.014
 2950W        W 4047   4.731   5.343   5.846
 2951W        W 4048   0.201   6.891   4.609
 2952W        W 4049   7.823   6.377   6.175
 2953W        W 4050   7.460   3.734   4.470
 2954W        W 4051   2.260   6.919   2.093
 2955W        W 4052   1.655   6.398   5.748
 2956W        W 4053   4.495   2.886   6.830
 2957W        W 4054   7.342   1.875   1.439
 2958W        W 4055   6.106   5.019   0.801
 2959W        W 4056   2.340   2.748   1.443
 2960W        W 4057   4.225   0.833   5.986
 2961W        W 4058   0.754   7.033   5.499
 2962W        W 4059   7.116   3.414   2.333
 2963W        W 4060   1.705   6.551   6.245
 2964W        W 4061   3.506   3.556   3.897
 2965W        W 4062   4.222   5.349   7.994
 2966W        W 4063   3.798   1.987   2.012
 2967W        W 4064   2.484   0.855   1.479
 2968W        W 4065   1.903   4.814   6.494
 2969W        W 4066   5.116   1.352   2.599
 2970W        W 4067   7.211   6.690   6.082
 2971W        W 4068   7.024   6.258   6.679
 2972W        W 4069   5.457   1.338   7.069
 2973W        W 4070   6.236   3.846   4.679
 2974W        W 4071   3.320   5.956   4.833
 2975W        W 4072   5.305   1.714   6.755
 2976W        W 4073   5.463   5.398   0.493
 2977W        W 4074   6.219   6.928   7.135
 2978W        W 4075   6.839   7.016   2.689
 2979W        W 4076   7.820   0.238   1.153
 2980W        W 4077   0.391   1.970   7.560
 2981W        W 4078   0.704   3.334   5.832
 2982W        W 4079   0.265   3.825   1.387
 2983W        W 4080   6.967   3.881   2.949
 2984W        W 4081   0.932   1.406   5.423
 2985W        W 4082   6.836   0.740   3.996
 2986W        W 4083   2.245   3.002   6.036
 2987W        W 4084   1.736   3.761   4.586
 2988W        W 4085   1.303   6.840   4.637
 2989W        W 4086   5.838   1.012   6.843
 2990W        W 4087   0.253   3.344   5.539
 2991W        W 4088   5.395   5.350   4.708
 2992W        W 4089   1.146   1.681   6.469
 2993W        W 4090   1.109   6.546   2.791
 2994W        W 4091   2.838   6.456   7.571
 2995W        W 4092   0.761   4.388   6.603
 2996W        W 4093   2.032   4.469   1.172
 2997W        W 4094   6.092   0.274   1.284
 2998W        W 4095   2.240   0.195   2.898
 2999W        W 4096   6.921   1.503   6.044
 3000W        W 4097   2.090   6.952   1.632
 3001W        W 4098   3.458   7.616   0.611
 3002W        W 4099   6.345   4.669   4.617
 3003W        W 4100   3.035   5.330   1.266
 3004W        W 4101   5.119   0.728   4.881
 3005W        W 4102   3.309   3.119   2.635
 3006W        W 4103   7.962   3.768   6.359
 3007W        W 4104   1.843   4.437   7.851
 3008W        W 4105   0.082   3.144   2.636
 3009W        W 4106   5.071   3.741   6.542
 3010W        W 4107   1.977   7.542   3.071
 3011W        W 4108   7.326   6.667   3.432
 3012W        W 4109   4.433   2.152   2.679
 3013W        W 4110   7.477   0.812   1.332
 3014W        W 4111   1.671   5.985   4.610
 3015W        W 4112   3.612   2.999   2.269
 3016W        W 4113   1.716   3.265   0.226
 3017W        W 4114   3.182   2.071   6.049
 3018W        W 4115   5.569   3.620   3.944
 3019W        W 4116   7.057   2.002   0.095
 3020W        W 4117   4.712   3.321   3.477
 3021W        W 4118   6.481   4.268   0.208
 3022W        W 4119   6.110   6.320   6.552
 3023W        W 4120   3.480   3.995   5.478
 3024W        W 4121   0.999   3.896   0.369
 3025W        W 4122   1.253   6.368   6.075
 3026W        W 4123   4.509   2.980   2.716
 3027W        W 4124   7.290   4.529   1.008
 3028W        W 4125   5.076   2.845   2.800
 3029W        W 4126   4.312   5.065   4.226
 3030W        W 4127   2.838   2.910   7.734
 3031W        W 4128   4.730   5.030   2.123
 3032W        W 4129   5.302   4.533   3.096
 3033W        W 4130   5.460   7.517   2.475
 3034W        W 4131   4.717   5.174   3.466
 3035W        W 4132   7.332   1.354   6.404
 3036W        W 4133   3.270   3.087   4.014
 3037W        W 4134   5.425   1.206   4.254
 3038W        W 4135   3.135   4.905   0.947
 3039W        W 4136   1.015   7.828   1.460
 3040W        W 4137   1.355   5.842   7.738
 3041W        W 4138   5.179   2.493   0.708
 3042W        W 4139   6.118   1.947   1.675
 3043W        W 4140   5.865   0.965   1.984
 3044CL-     CL 4141   0.331   3.089   3.924
 3045CL-     CL 4142   7.929   1.101   3.258
 3046CL-     CL 4143   5.676   1.433   2.966
 3047CL-     CL 4144   1.602   2.575   3.865
 3048CL-     CL 4145   0.846   5.585   3.603
 3049CL-     CL 4146   3.631   5.801   0.429
 3050CL-     CL 4147   4.805   5.036   6.253
 3051CL-     CL 4148   0.428   1.998   1.685
 3052CL-     CL 4149   5.285   7.593   5.142
 3053CL-     CL 4150   5.832   7.786   6.897
 3054CL-     CL 4151   5.943   4.663   6.881
 3055CL-     CL 4152   1.758   0.699   6.406
 3056CL-     CL 4153   5.119   3.721   2.772
 3057CL-     CL 4154   1.016   1.658   3.062
 3058CL-     CL 4155   3.928   5.259   4.369
 3059CL-     CL 4156   3.423   1.148   3.498
 3060CL-     CL 4157   4.694   0.868   1.349
 3061CL-     CL 4158   7.277   4.794   2.733
 3062CL-     CL 4159   7.318   0.141   6.262
 3063CL-     CL 4160   6.839   5.566   1.290
 3064CL-     CL 4161   6.426   6.802   4.629
 3065CL-     CL 4162   7.727   7.693   5.756
 3066CL-     CL 4163   2.692   1.409   4.344
 3067CL-     CL 4164   6.602   4.315   3.583
 3068CL-     CL 4165   5.543   6.725   3.066
 3069CL-     CL 4166   6.438   3.904   5.094
 3070CL-     CL 4167   3.171   7.858   5.933
 3071CL-     CL 4168   5.807   3.849   2.025
 3072CL-     CL 4169   6.709   2.108   2.927
 3073CL-     CL 4170   0.625   5.859   1.817
 3074CL-     CL 4171   5.444   2.473   2.541
 3075CL-     CL 4172   5.713   1.745   1.961
 3076CL-     CL 4173   3.928   6.100   6.005
 3077CL-     CL 4174   0.296   1.363   4.181
 3078CL-     CL 4175   4.969   4.629   2.548
 3079CL-     CL 4176   3.500   4.993   3.530
 3080CL-     CL 4177   2.932   6.778   4.683
 3081CL-     CL 4178   2.661   4.839   5.864
 3082CL-     CL 4179   0.232   6.549   0.771
 3083CL-     CL 4180   3.578   1.992   7.916
 3084CL-     CL 4181   1.550   0.760   5.615
 3085CL-     CL 4182   4.952   5.119   0.358
 3086CL-     CL 4183   1.508   2.550   1.237
 3087CL-     CL 4184   0.066   4.405   4.621
 3088CL-     CL 4185   5.642   1.206   5.954
 3089CL-     CL 4186   6.233   7.846   2.339
 3090CL-     CL 4187   5.107   6.191   5.599
 3091CL-     CL 4188   0.073   7.311   2.727
 3092CL-     CL 4189   5.510   5.288   6.214
 3093CL-     CL 4190   7.248   0.490   4.654
 3094CL-     CL 4191   5.574   2.616   4.746
 3095CL-     CL 4192   0.942   0.045   7.397
 3096CL-     CL 4193   2.370   6.774   1.299
 3097CL-     CL 4194   6.953   3.751   4.740
 3098CL-     CL 4195   4.557   0.474   6.112
 3099CL-     CL 4196   6.924   5.663   7.516
 3100CL-     CL 4197   2.226   5.983   3.793
 3101CL-     CL 4198   4.484   4.262   1.770
 3102CL-     CL 4199   2.386   7.083   7.388
 3103CL-     CL 4200   1.773   5.616   6.378
 3104CL-     CL 4201   7.173   7.619   3.381
 3105CL-     CL 4202   7.880   4.695   2.447
 3106CL-     CL 4203   3.725   7.776   2.289
 3107CL-     CL 4204   7.680   2.976   3.495
 3108CL-     CL 4205   1.708   0.644   5.006
 3109CL-     CL 4206   4.204   0.818   0.112
 3110CL-     CL 4207   1.946   6.233   2.305
 3111CL-     CL 4208   5.001   5.580   7.208
 3112CL-     CL 4209   2.518   0.477   4.889
 3113CL-     CL 4210   4.783   6.740   2.770
 3114CL-     CL 4211   4.167   2.570   2.006
 3115CL-     CL 4212   3.632   4.877   5.559
 3116CL-     CL 4213   5.906   1.622   7.385
 3117CL-     CL 4214   2.496   0.292   6.236
 3118CL-     CL 4215   3.397   7.189   6.759
 3119CL-     CL 4216   3.535   5.832   7.183
 3120CL-     CL 4217   5.132   2.349   6.064
 3121CL-     CL 4218   6.054   0.955   2.444
 3122CL-     CL 4219   1.020   6.960   7.857
 3123CL-     CL 4220   4.795   2.756   5.034
 3124CL-     CL 4221   7.401   2.665   2.003
 3125CL-     CL 4222   4.921   4.007   5.106
 3126CL-     CL 4223   1.994   4.544   1.703
 3127CL-     CL 4224   3.198   1.667   5.606
 3128CL-     CL 4225   3.022   2.365   1.678
 3129CL-     CL 4226   3.929   1.036   1.031
 3130CL-     CL 4227   7.941   6.055   5.316
 3131CL-     CL 4228   5.799   1.516   6.729
 3132CL-     CL 4229   0.387   2.810   1.919
 3133CL-     CL 4230   7.997   7.211   6.058
 3134CL-     CL 4231   7.371   1.735   2.626
 3135CL-     CL 4232   3.231   0.502   3.725
 3136CL-     CL 4233   1.552   3.619   4.057
 3137CL-     CL 4234   0.854   0.066   3.326
 3138CL-     CL 4235   1.297   7.142   5.489
 3139CL-     CL 4236   6.581   4.574   5.619
 3140CL-     CL 4237   5.195   6.807   6.129
 3141CL-     CL 4238   3.565   6.423   2.238
 3142CL-     CL 4239   7.118   1.325   4.286
 3143CL-     CL 4240   6.862   1.258   6.570
   8.00000   8.00000   8.00000
