Martini system from ../2_Creating_coordinates/TYR-TYR-TYR_aa.pdb
 4352
    1TYR     BB    1   3.819   6.387   6.535
    1TYR    SC1    2   3.912   6.648   6.676
    1TYR    SC2    3   3.808   6.604   6.889
    1TYR    SC3    4   3.997   6.701   7.005
    2TYR     BB    5   3.919   6.222   6.859
    2TYR    SC1    6   3.782   5.965   6.750
    2TYR    SC2    7   3.822   5.826   6.943
    2TYR    SC3    8   3.604   5.723   6.918
    3TYR     BB    9   3.781   6.160   7.144
    3TYR    SC1   10   3.908   6.360   7.314
    3TYR    SC2   11   3.818   6.334   7.536
    3TYR    SC3   12   4.038   6.373   7.632
    1TYR     BB   13   7.503   4.464   5.688
    1TYR    SC1   14   7.234   4.622   5.687
    1TYR    SC2   15   7.173   4.574   5.915
    1TYR    SC3   16   7.083   4.799   5.941
    2TYR     BB   17   7.553   4.627   6.024
    2TYR    SC1   18   7.796   4.435   6.060
    2TYR    SC2   19   7.858   4.508   6.281
    2TYR    SC3   20   7.913   4.281   6.345
    3TYR     BB   21   7.474   4.563   6.330
    3TYR    SC1   22   7.258   4.754   6.373
    3TYR    SC2   23   7.180   4.726   6.599
    3TYR    SC3   24   7.157   4.966   6.625
    1TYR     BB   25   6.028   7.125   7.508
    1TYR    SC1   26   5.886   7.400   7.471
    1TYR    SC2   27   5.772   7.402   7.683
    1TYR    SC3   28   5.811   7.641   7.705
    2TYR     BB   29   6.100   7.252   7.856
    2TYR    SC1   30   6.197   6.964   7.922
    2TYR    SC2   31   6.252   7.004   8.153
    2TYR    SC3   32   6.168   6.784   8.214
    3TYR     BB   33   5.950   7.254   8.141
    3TYR    SC1   34   5.863   7.531   8.158
    3TYR    SC2   35   5.745   7.557   8.367
    3TYR    SC3   36   5.847   7.775   8.400
    1TYR     BB   37   5.893   2.825   3.121
    1TYR    SC1   38   5.655   3.010   3.198
    1TYR    SC2   39   5.701   3.018   3.435
    1TYR    SC3   40   5.637   3.252   3.443
    2TYR     BB   41   6.091   3.045   3.354
    2TYR    SC1   42   6.321   2.837   3.326
    2TYR    SC2   43   6.477   2.945   3.474
    2TYR    SC3   44   6.550   2.730   3.559
    3TYR     BB   45   6.155   3.055   3.669
    3TYR    SC1   46   5.985   3.276   3.755
    3TYR    SC2   47   6.016   3.303   3.992
    3TYR    SC3   48   6.011   3.545   3.968
    1TYR     BB   49   6.084   1.926   3.891
    1TYR    SC1   50   5.979   2.154   3.707
    1TYR    SC2   51   6.172   2.166   3.563
    1TYR    SC3   52   6.030   2.205   3.370
    2TYR     BB   53   6.194   1.767   3.567
    2TYR    SC1   54   6.349   1.561   3.742
    2TYR    SC2   55   6.444   1.435   3.560
    2TYR    SC3   56   6.651   1.407   3.683
    3TYR     BB   57   6.452   1.780   3.375
    3TYR    SC1   58   6.351   1.941   3.154
    3TYR    SC2   59   6.530   1.965   2.995
    3TYR    SC3   60   6.374   1.938   2.811
    1TYR     BB   61   4.487   1.310   5.759
    1TYR    SC1   62   4.392   1.025   5.679
    1TYR    SC2   63   4.185   1.092   5.576
    1TYR    SC3   64   4.212   0.924   5.403
    2TYR     BB   65   4.373   1.405   5.413
    2TYR    SC1   66   4.415   1.701   5.500
    2TYR    SC2   67   4.343   1.802   5.294
    2TYR    SC3   68   4.235   1.982   5.416
    3TYR     BB   69   4.097   1.498   5.274
    3TYR    SC1   70   4.020   1.255   5.133
    3TYR    SC2   71   3.812   1.300   5.019
    3TYR    SC3   72   3.888   1.176   4.825
    1TYR     BB   73   4.053   4.845   7.177
    1TYR    SC1   74   3.962   4.817   7.474
    1TYR    SC2   75   4.101   4.991   7.564
    1TYR    SC3   76   3.924   5.058   7.716
    2TYR     BB   77   4.020   5.215   7.243
    2TYR    SC1   78   4.160   5.258   6.968
    2TYR    SC2   79   4.162   5.499   6.974
    2TYR    SC3   80   4.382   5.502   6.871
    3TYR     BB   81   4.206   5.450   7.361
    3TYR    SC1   82   4.090   5.487   7.626
    3TYR    SC2   83   4.215   5.661   7.736
    3TYR    SC3   84   4.011   5.752   7.830
    1TYR     BB   85   2.036   7.726   3.967
    1TYR    SC1   86   2.189   7.927   4.150
    1TYR    SC2   87   2.037   7.916   4.337
    1TYR    SC3   88   2.224   7.929   4.492
    2TYR     BB   89   2.006   7.521   4.283
    2TYR    SC1   90   1.808   7.340   4.125
    2TYR    SC2   91   1.758   7.189   4.305
    2TYR    SC3   92   1.526   7.176   4.235
    3TYR     BB   93   1.803   7.504   4.533
    3TYR    SC1   94   1.959   7.634   4.742
    3TYR    SC2   95   1.826   7.634   4.943
    3TYR    SC3   96   2.022   7.583   5.076
    1TYR     BB   97   5.262   3.089   7.344
    1TYR    SC1   98   5.355   3.060   7.048
    1TYR    SC2   99   5.591   3.066   7.091
    1TYR    SC3  100   5.630   2.898   6.919
    2TYR     BB  101   5.533   2.836   7.413
    2TYR    SC1  102   5.486   2.896   7.715
    2TYR    SC2  103   5.655   2.748   7.801
    2TYR    SC3  104   5.713   2.907   7.974
    3TYR     BB  105   5.849   2.842   7.474
    3TYR    SC1  106   5.958   2.750   7.219
    3TYR    SC2  107   6.198   2.746   7.240
    3TYR    SC3  108   6.208   2.538   7.115
    1TYR     BB  109   7.689   0.937   7.074
    1TYR    SC1  110   7.852   0.942   6.809
    1TYR    SC2  111   7.755   0.745   6.712
    1TYR    SC3  112   7.758   0.848   6.492
    2TYR     BB  113   7.397   0.859   6.849
    2TYR    SC1  114   7.236   0.799   7.109
    2TYR    SC2  115   7.030   0.736   7.001
    2TYR    SC3  116   6.994   0.562   7.166
    3TYR     BB  117   7.264   0.595   6.720
    3TYR    SC1  118   7.353   0.616   6.443
    3TYR    SC2  119   7.265   0.426   6.325
    3TYR    SC3  120   7.217   0.565   6.131
    1TYR     BB  121   0.219   0.571   1.945
    1TYR    SC1  122  -0.028   0.614   2.129
    1TYR    SC2  123   0.073   0.532   2.332
    1TYR    SC3  124  -0.040   0.704   2.461
    2TYR     BB  125   0.412   0.718   2.232
    2TYR    SC1  126   0.670   0.631   2.080
    2TYR    SC2  127   0.828   0.709   2.244
    2TYR    SC3  128   0.969   0.515   2.204
    3TYR     BB  129   0.550   0.610   2.502
    3TYR    SC1  130   0.361   0.702   2.704
    3TYR    SC2  131   0.444   0.631   2.919
    3TYR    SC3  132   0.376   0.842   3.018
    1TYR     BB  133   5.921   2.219   0.761
    1TYR    SC1  134   5.957   1.929   0.866
    1TYR    SC2  135   6.019   1.987   1.091
    1TYR    SC3  136   5.892   1.798   1.177
    2TYR     BB  137   5.741   2.274   1.088
    2TYR    SC1  138   5.745   2.577   1.019
    2TYR    SC2  139   5.636   2.654   1.219
    2TYR    SC3  140   5.780   2.849   1.227
    3TYR     BB  141   5.821   2.354   1.389
    3TYR    SC1  142   5.796   2.097   1.525
    3TYR    SC2  143   5.853   2.132   1.757
    3TYR    SC3  144   5.674   1.983   1.826
    1TYR     BB  145   5.297   0.207   4.436
    1TYR    SC1  146   5.139   0.414   4.267
    1TYR    SC2  147   5.122   0.584   4.438
    1TYR    SC3  148   5.154   0.758   4.272
    2TYR     BB  149   5.499   0.506   4.545
    2TYR    SC1  150   5.629   0.318   4.757
    2TYR    SC2  151   5.771   0.484   4.858
    2TYR    SC3  152   5.731   0.388   5.078
    3TYR     BB  153   5.480   0.731   4.774
    3TYR    SC1  154   5.393   0.962   4.620
    3TYR    SC2  155   5.370   1.147   4.772
    3TYR    SC3  156   5.466   1.298   4.608
    1TYR     BB  157   4.765   2.471   8.307
    1TYR    SC1  158   4.869   2.646   8.072
    1TYR    SC2  159   4.952   2.466   7.936
    1TYR    SC3  160   4.877   2.579   7.734
    2TYR     BB  161   4.628   2.252   8.032
    2TYR    SC1  162   4.566   2.043   8.254
    2TYR    SC2  163   4.476   1.873   8.110
    2TYR    SC3  164   4.581   1.699   8.242
    3TYR     BB  165   4.736   2.008   7.850
    3TYR    SC1  166   4.780   2.142   7.595
    3TYR    SC2  167   4.863   1.978   7.440
    3TYR    SC3  168   4.727   2.072   7.263
    1TYR     BB  169   1.614   2.264   6.317
    1TYR    SC1  170   1.387   2.466   6.252
    1TYR    SC2  171   1.213   2.356   6.378
    1TYR    SC3  172   1.124   2.571   6.448
    2TYR     BB  173   1.478   2.281   6.668
    2TYR    SC1  174   1.664   2.041   6.733
    2TYR    SC2  175   1.600   2.016   6.963
    2TYR    SC3  176   1.613   1.774   6.944
    3TYR     BB  177   1.248   2.133   6.838
    3TYR    SC1  178   1.042   2.339   6.847
    3TYR    SC2  179   0.856   2.250   6.972
    3TYR    SC3  180   0.822   2.465   7.081
    1TYR     BB  181   1.517   5.787   4.117
    1TYR    SC1  182   1.726   5.746   4.344
    1TYR    SC2  183   1.575   5.648   4.504
    1TYR    SC3  184   1.748   5.495   4.578
    2TYR     BB  185   1.404   5.439   4.209
    2TYR    SC1  186   1.159   5.489   4.024
    2TYR    SC2  187   1.052   5.277   4.061
    2TYR    SC3  188   0.833   5.384   4.058
    3TYR     BB  189   1.201   5.307   4.422
    3TYR    SC1  190   1.386   5.199   4.619
    3TYR    SC2  191   1.256   5.094   4.791
    3TYR    SC3  192   1.416   4.911   4.805
    1TYR     BB  193   3.635   5.012   2.049
    1TYR    SC1  194   3.409   4.879   2.217
    1TYR    SC2  195   3.544   4.825   2.409
    1TYR    SC3  196   3.360   4.880   2.558
    2TYR     BB  197   3.726   5.179   2.374
    2TYR    SC1  198   3.985   5.275   2.231
    2TYR    SC2  199   4.081   5.391   2.419
    2TYR    SC3  200   4.303   5.315   2.357
    3TYR     BB  201   3.908   5.110   2.631
    3TYR    SC1  202   3.705   5.043   2.829
    3TYR    SC2  203   3.819   4.987   3.033
    3TYR    SC3  204   3.651   5.105   3.163
    1TYR     BB  205   1.498   4.210   1.100
    1TYR    SC1  206   1.698   4.372   1.275
    1TYR    SC2  207   1.753   4.194   1.428
    1TYR    SC3  208   1.985   4.267   1.434
    2TYR     BB  209   1.758   3.938   1.121
    2TYR    SC1  210   1.546   3.750   0.993
    2TYR    SC2  211   1.681   3.550   0.994
    2TYR    SC3  212   1.487   3.416   1.050
    3TYR     BB  213   1.832   3.698   1.323
    3TYR    SC1  214   2.067   3.806   1.457
    3TYR    SC2  215   2.142   3.642   1.616
    3TYR    SC3  216   2.373   3.688   1.560
    1TYR     BB  217   0.321   1.240   5.698
    1TYR    SC1  218   0.402   1.041   5.923
    1TYR    SC2  219   0.586   1.170   6.010
    1TYR    SC3  220   0.528   1.105   6.237
    2TYR     BB  221   0.368   1.502   5.964
    2TYR    SC1  222   0.341   1.713   5.737
    2TYR    SC2  223   0.372   1.908   5.874
    2TYR    SC3  224   0.500   2.015   5.698
    3TYR     BB  225   0.612   1.678   6.080
    3TYR    SC1  226   0.663   1.543   6.334
    3TYR    SC2  227   0.846   1.658   6.441
    3TYR    SC3  228   0.736   1.636   6.657
    1TYR     BB  229   5.547   5.219   7.502
    1TYR    SC1  230   5.337   5.294   7.719
    1TYR    SC2  231   5.426   5.154   7.894
    1TYR    SC3  232   5.376   5.324   8.060
    2TYR     BB  233   5.796   5.258   7.783
    2TYR    SC1  234   6.006   5.133   7.590
    2TYR    SC2  235   6.191   5.136   7.743
    2TYR    SC3  236   6.268   4.922   7.659
    3TYR     BB  237   5.917   5.071   8.016
    3TYR    SC1  238   5.777   5.173   8.250
    3TYR    SC2  239   5.852   5.047   8.440
    3TYR    SC3  240   5.854   5.248   8.576
    1TYR     BB  241   2.033   6.932   5.658
    1TYR    SC1  242   2.120   7.148   5.865
    1TYR    SC2  243   1.903   7.183   5.963
    1TYR    SC3  244   2.003   7.206   6.184
    2TYR     BB  245   1.837   6.789   5.947
    2TYR    SC1  246   1.701   6.602   5.739
    2TYR    SC2  247   1.555   6.489   5.893
    2TYR    SC3  248   1.378   6.485   5.726
    3TYR     BB  249   1.546   6.833   6.078
    3TYR    SC1  250   1.614   6.983   6.319
    3TYR    SC2  251   1.408   7.029   6.436
    3TYR    SC3  252   1.516   6.985   6.649
    1TYR     BB  253   6.935   3.603   8.051
    1TYR    SC1  254   6.964   3.586   7.741
    1TYR    SC2  255   7.142   3.423   7.738
    1TYR    SC3  256   7.044   3.316   7.543
    2TYR     BB  257   6.961   3.227   8.035
    2TYR    SC1  258   6.986   3.234   8.346
    2TYR    SC2  259   7.011   2.997   8.378
    2TYR    SC3  260   7.173   3.034   8.555
    3TYR     BB  261   7.197   3.008   8.033
    3TYR    SC1  262   7.197   2.927   7.753
    3TYR    SC2  263   7.369   2.760   7.726
    3TYR    SC3  264   7.226   2.633   7.577
    1TYR     BB  265   6.976   0.707   4.937
    1TYR    SC1  266   6.804   0.909   5.100
    1TYR    SC2  267   6.800   0.784   5.306
    1TYR    SC3  268   6.819   0.989   5.435
    2TYR     BB  269   7.184   0.689   5.251
    2TYR    SC1  270   7.330   0.448   5.118
    2TYR    SC2  271   7.479   0.400   5.302
    2TYR    SC3  272   7.456   0.162   5.262
    3TYR     BB  273   7.181   0.520   5.526
    3TYR    SC1  274   7.082   0.719   5.714
    3TYR    SC2  275   7.070   0.615   5.930
    3TYR    SC3  276   7.153   0.818   6.036
    1TYR     BB  277   6.965   4.139   3.638
    1TYR    SC1  278   7.083   4.389   3.495
    1TYR    SC2  279   7.243   4.446   3.664
    1TYR    SC3  280   7.405   4.509   3.495
    2TYR     BB  281   7.325   4.058   3.712
    2TYR    SC1  282   7.218   3.836   3.902
    2TYR    SC2  283   7.432   3.757   3.978
    2TYR    SC3  284   7.344   3.725   4.202
    3TYR     BB  285   7.541   4.132   3.940
    3TYR    SC1  286   7.709   4.324   3.799
    3TYR    SC2  287   7.881   4.395   3.952
    3TYR    SC3  288   8.045   4.391   3.774
    1TYR     BB  289   4.018   0.623   0.360
    1TYR    SC1  290   4.013   0.363   0.531
    1TYR    SC2  291   3.877   0.233   0.381
    1TYR    SC3  292   4.008   0.034   0.429
    2TYR     BB  293   4.077   0.387   0.072
    2TYR    SC1  294   4.031   0.632  -0.115
    2TYR    SC2  295   4.058   0.515  -0.323
    2TYR    SC3  296   3.880   0.648  -0.423
    3TYR     BB  297   3.896   0.215  -0.131
    3TYR    SC1  298   3.931  -0.054  -0.025
    3TYR    SC2  299   3.803  -0.204  -0.162
    3TYR    SC3  300   3.980  -0.370  -0.152
    1TYR     BB  301   6.603   7.847   4.936
    1TYR    SC1  302   6.787   7.972   5.154
    1TYR    SC2  303   6.985   7.848   5.099
    1TYR    SC3  304   7.123   8.043   5.143
    2TYR     BB  305   6.901   7.896   4.711
    2TYR    SC1  306   6.748   7.725   4.501
    2TYR    SC2  307   6.919   7.729   4.331
    2TYR    SC3  308   6.869   7.498   4.272
    3TYR     BB  309   7.167   7.730   4.634
    3TYR    SC1  310   7.371   7.877   4.782
    3TYR    SC2  311   7.582   7.770   4.739
    3TYR    SC3  312   7.692   7.986   4.725
    1TYR     BB  313   4.603   6.423   4.953
    1TYR    SC1  314   4.847   6.286   5.089
    1TYR    SC2  315   4.891   6.458   5.251
    1TYR    SC3  316   4.946   6.291   5.418
    2TYR     BB  317   4.497   6.498   5.307
    2TYR    SC1  318   4.279   6.683   5.183
    2TYR    SC2  319   4.185   6.760   5.391
    2TYR    SC3  320   4.154   6.982   5.298
    3TYR     BB  321   4.552   6.730   5.525
    3TYR    SC1  322   4.735   6.594   5.706
    3TYR    SC2  323   4.792   6.750   5.881
    3TYR    SC3  324   4.781   6.573   6.047
    1TYR     BB  325   5.535   1.394   0.477
    1TYR    SC1  326   5.722   1.452   0.235
    1TYR    SC2  327   5.637   1.279   0.091
    1TYR    SC3  328   5.659   1.424  -0.102
    2TYR     BB  329   5.266   1.364   0.214
    2TYR    SC1  330   5.083   1.253   0.439
    2TYR    SC2  331   4.889   1.214   0.302
    2TYR    SC3  332   4.839   1.010   0.424
    3TYR     BB  333   5.150   1.132   0.022
    3TYR    SC1  334   5.264   1.208  -0.235
    3TYR    SC2  335   5.191   1.047  -0.398
    3TYR    SC3  336   5.159   1.223  -0.562
    1TYR     BB  337   0.870   2.288   4.170
    1TYR    SC1  338   0.740   2.444   3.933
    1TYR    SC2  339   0.886   2.635   3.942
    1TYR    SC3  340   0.887   2.649   3.699
    2TYR     BB  341   1.195   2.391   4.009
    2TYR    SC1  342   1.335   2.285   4.266
    2TYR    SC2  343   1.560   2.341   4.201
    2TYR    SC3  344   1.613   2.405   4.429
    3TYR     BB  345   1.393   2.645   4.020
    3TYR    SC1  346   1.333   2.775   3.767
    3TYR    SC2  347   1.471   2.972   3.752
    3TYR    SC3  348   1.511   2.931   3.516
    1TYR     BB  349   0.067   7.231   1.114
    1TYR    SC1  350   0.235   7.088   1.334
    1TYR    SC2  351   0.288   6.891   1.207
    1TYR    SC3  352   0.511   6.885   1.302
    2TYR     BB  353   0.344   7.120   0.884
    2TYR    SC1  354   0.162   7.211   0.649
    2TYR    SC2  355   0.311   7.149   0.471
    2TYR    SC3  356   0.123   7.075   0.336
    3TYR     BB  357   0.415   6.858   0.711
    3TYR    SC1  358   0.627   6.738   0.872
    3TYR    SC2  359   0.697   6.537   0.761
    3TYR    SC3  360   0.929   6.584   0.815
    1TYR     BB  361   4.848   3.100   2.528
    1TYR    SC1  362   4.546   3.162   2.487
    1TYR    SC2  363   4.566   3.259   2.267
    1TYR    SC3  364   4.358   3.154   2.198
    2TYR     BB  365   4.833   2.976   2.173
    2TYR    SC1  366   5.143   2.960   2.184
    2TYR    SC2  367   5.176   2.884   1.958
    2TYR    SC3  368   5.375   3.022   1.937
    3TYR     BB  369   4.862   3.103   1.878
    3TYR    SC1  370   4.584   3.109   1.790
    3TYR    SC2  371   4.580   3.202   1.568
    3TYR    SC3  372   4.411   3.042   1.501
    1TYR     BB  373   1.294   1.132   7.861
    1TYR    SC1  374   1.290   1.325   7.617
    1TYR    SC2  375   1.524   1.307   7.562
    1TYR    SC3  376   1.472   1.314   7.325
    2TYR     BB  377   1.506   0.915   7.637
    2TYR    SC1  378   1.561   0.740   7.889
    2TYR    SC2  379   1.708   0.582   7.782
    2TYR    SC3  380   1.848   0.573   7.980
    3TYR     BB  381   1.819   0.888   7.564
    3TYR    SC1  382   1.827   1.009   7.299
    3TYR    SC2  383   2.055   1.001   7.222
    3TYR    SC3  384   1.980   0.944   6.998
    1TYR     BB  385   1.729   3.541   2.224
    1TYR    SC1  386   1.546   3.596   2.469
    1TYR    SC2  387   1.628   3.416   2.607
    1TYR    SC3  388   1.611   3.555   2.805
    2TYR     BB  389   1.999   3.496   2.483
    2TYR    SC1  390   2.178   3.389   2.252
    2TYR    SC2  391   2.372   3.341   2.386
    2TYR    SC3  392   2.416   3.140   2.257
    3TYR     BB  393   2.111   3.256   2.666
    3TYR    SC1  394   2.001   3.326   2.926
    3TYR    SC2  395   2.073   3.157   3.083
    3TYR    SC3  396   2.110   3.327   3.253
    1TYR     BB  397   4.644   7.563   7.273
    1TYR    SC1  398   4.442   7.387   7.114
    1TYR    SC2  399   4.469   7.187   7.245
    1TYR    SC3  400   4.232   7.139   7.226
    2TYR     BB  401   4.479   7.411   7.576
    2TYR    SC1  402   4.708   7.540   7.743
    2TYR    SC2  403   4.637   7.457   7.957
    2TYR    SC3  404   4.868   7.422   8.023
    3TYR     BB  405   4.515   7.145   7.754
    3TYR    SC1  406   4.288   6.986   7.666
    3TYR    SC2  407   4.293   6.778   7.787
    3TYR    SC3  408   4.052   6.782   7.811
    1TYR     BB  409   0.042   5.952   5.714
    1TYR    SC1  410  -0.194   5.970   5.917
    1TYR    SC2  411  -0.230   5.733   5.940
    1TYR    SC3  412  -0.276   5.761   6.177
    2TYR     BB  413   0.166   5.678   5.941
    2TYR    SC1  414   0.376   5.614   5.720
    2TYR    SC2  415   0.480   5.428   5.832
    2TYR    SC3  416   0.504   5.311   5.621
    3TYR     BB  417   0.121   5.360   5.973
    3TYR    SC1  418  -0.052   5.350   6.208
    3TYR    SC2  419  -0.100   5.119   6.252
    3TYR    SC3  420  -0.079   5.156   6.491
    1TYR     BB  421   2.608   6.867   2.912
    1TYR    SC1  422   2.819   7.081   2.831
    1TYR    SC2  423   2.998   6.928   2.782
    1TYR    SC3  424   3.068   7.065   2.594
    2TYR     BB  425   2.734   6.683   2.609
    2TYR    SC1  426   2.566   6.440   2.709
    2TYR    SC2  427   2.628   6.289   2.532
    2TYR    SC3  428   2.635   6.104   2.690
    3TYR     BB  429   2.972   6.476   2.542
    3TYR    SC1  430   3.160   6.648   2.401
    3TYR    SC2  431   3.350   6.514   2.340
    3TYR    SC3  432   3.363   6.625   2.124
    1TYR     BB  433   3.652   3.075   7.318
    1TYR    SC1  434   3.488   2.818   7.382
    1TYR    SC2  435   3.360   2.815   7.178
    1TYR    SC3  436   3.375   2.572   7.169
    2TYR     BB  437   3.688   2.922   6.976
    2TYR    SC1  438   3.805   3.196   6.885
    2TYR    SC2  439   3.839   3.138   6.654
    2TYR    SC3  440   3.772   3.360   6.585
    3TYR     BB  441   3.518   2.918   6.701
    3TYR    SC1  442   3.405   2.650   6.708
    3TYR    SC2  443   3.271   2.623   6.510
    3TYR    SC3  444   3.351   2.395   6.484
    1TYR     BB  445   2.405   0.810   4.166
    1TYR    SC1  446   2.109   0.728   4.217
    1TYR    SC2  447   2.050   0.689   3.987
    1TYR    SC3  448   1.913   0.498   4.052
    2TYR     BB  449   2.406   0.516   3.930
    2TYR    SC1  450   2.682   0.618   3.831
    2TYR    SC2  451   2.718   0.449   3.664
    2TYR    SC3  452   2.818   0.612   3.515
    3TYR     BB  453   2.329   0.462   3.621
    3TYR    SC1  454   2.075   0.321   3.649
    3TYR    SC2  455   1.996   0.269   3.428
    3TYR    SC3  456   1.921   0.051   3.502
    1TYR     BB  457   2.522   1.879   4.758
    1TYR    SC1  458   2.571   2.022   4.487
    1TYR    SC2  459   2.509   2.243   4.559
    1TYR    SC3  460   2.686   2.340   4.424
    2TYR     BB  461   2.699   2.178   4.905
    2TYR    SC1  462   2.610   2.072   5.183
    2TYR    SC2  463   2.705   2.250   5.314
    2TYR    SC3  464   2.515   2.246   5.464
    3TYR     BB  465   2.617   2.473   5.004
    3TYR    SC1  466   2.718   2.637   4.785
    3TYR    SC2  467   2.667   2.867   4.838
    3TYR    SC3  468   2.883   2.937   4.752
    1TYR     BB  469   2.107   2.256   1.343
    1TYR    SC1  470   2.056   2.532   1.208
    1TYR    SC2  471   1.815   2.519   1.207
    1TYR    SC3  472   1.800   2.756   1.258
    2TYR     BB  473   1.827   2.359   1.573
    2TYR    SC1  474   1.832   2.067   1.681
    2TYR    SC2  475   1.651   2.092   1.839
    2TYR    SC3  476   1.572   1.868   1.787
    3TYR     BB  477   1.505   2.341   1.574
    3TYR    SC1  478   1.432   2.616   1.513
    3TYR    SC2  479   1.191   2.628   1.508
    3TYR    SC3  480   1.197   2.844   1.620
    1TYR     BB  481   7.816   6.830   2.753
    1TYR    SC1  482   7.698   6.631   2.961
    1TYR    SC2  483   7.828   6.707   3.150
    1TYR    SC3  484   7.637   6.676   3.297
    2TYR     BB  485   7.775   7.084   3.029
    2TYR    SC1  486   7.940   7.279   2.850
    2TYR    SC2  487   7.940   7.465   3.003
    2TYR    SC3  488   8.168   7.519   2.941
    3TYR     BB  489   7.948   7.188   3.280
    3TYR    SC1  490   7.808   7.061   3.502
    3TYR    SC2  491   7.921   7.125   3.705
    3TYR    SC3  492   7.708   7.150   3.819
    1TYR     BB  493   5.121   2.548   6.704
    1TYR    SC1  494   5.430   2.529   6.671
    1TYR    SC2  495   5.433   2.324   6.545
    1TYR    SC3  496   5.615   2.407   6.408
    2TYR     BB  497   5.113   2.450   6.340
    2TYR    SC1  498   4.806   2.414   6.375
    2TYR    SC2  499   4.760   2.342   6.150
    2TYR    SC3  500   4.596   2.183   6.231
    3TYR     BB  501   5.115   2.176   6.171
    3TYR    SC1  502   5.389   2.172   6.071
    3TYR    SC2  503   5.415   1.973   5.939
    3TYR    SC3  504   5.547   2.094   5.775
    1TYR     BB  505   3.050   6.125   5.344
    1TYR    SC1  506   3.234   6.327   5.493
    1TYR    SC2  507   3.349   6.165   5.630
    1TYR    SC3  508   3.557   6.287   5.605
    2TYR     BB  509   3.363   5.917   5.317
    2TYR    SC1  510   3.180   5.687   5.215
    2TYR    SC2  511   3.353   5.522   5.188
    2TYR    SC3  512   3.203   5.348   5.268
    3TYR     BB  513   3.516   5.698   5.497
    3TYR    SC1  514   3.740   5.855   5.599
    3TYR    SC2  515   3.871   5.711   5.740
    3TYR    SC3  516   4.077   5.807   5.652
    1TYR     BB  517   1.654   4.092   4.203
    1TYR    SC1  518   1.355   4.073   4.119
    1TYR    SC2  519   1.393   4.054   3.882
    1TYR    SC3  520   1.210   3.895   3.863
    2TYR     BB  521   1.702   3.812   3.955
    2TYR    SC1  522   2.008   3.857   3.990
    2TYR    SC2  523   2.080   3.689   3.834
    2TYR    SC3  524   2.262   3.832   3.759
    3TYR     BB  525   1.755   3.785   3.638
    3TYR    SC1  526   1.493   3.700   3.544
    3TYR    SC2  527   1.507   3.673   3.305
    3TYR    SC3  528   1.370   3.474   3.316
    1TYR     BB  529   6.315   4.973   0.846
    1TYR    SC1  530   6.554   4.773   0.852
    1TYR    SC2  531   6.596   4.786   1.089
    1TYR    SC3  532   6.646   4.549   1.096
    2TYR     BB  533   6.202   4.788   1.155
    2TYR    SC1  534   5.990   5.013   1.190
    2TYR    SC2  535   5.893   4.928   1.394
    2TYR    SC3  536   5.867   5.154   1.479
    3TYR     BB  537   6.256   4.805   1.472
    3TYR    SC1  538   6.433   4.577   1.513
    3TYR    SC2  539   6.489   4.570   1.747
    3TYR    SC3  540   6.471   4.327   1.746
    1TYR     BB  541   1.056   1.042   0.831
    1TYR    SC1  542   0.756   1.125   0.809
    1TYR    SC2  543   0.677   0.997   0.996
    1TYR    SC3  544   0.524   1.175   1.057
    2TYR     BB  545   1.005   1.101   1.200
    2TYR    SC1  546   1.284   0.970   1.241
    2TYR    SC2  547   1.288   0.985   1.481
    2TYR    SC3  548   1.396   0.768   1.496
    3TYR     BB  549   0.901   0.930   1.453
    3TYR    SC1  550   0.635   1.043   1.492
    3TYR    SC2  551   0.535   0.929   1.680
    3TYR    SC3  552   0.440   1.137   1.760
    1TYR     BB  553   5.381   4.012   6.062
    1TYR    SC1  554   5.325   3.773   5.870
    1TYR    SC2  555   5.555   3.714   5.829
    1TYR    SC3  556   5.498   3.478   5.830
    2TYR     BB  557   5.635   3.778   6.215
    2TYR    SC1  558   5.736   4.024   6.377
    2TYR    SC2  559   5.914   3.911   6.493
    2TYR    SC3  560   6.056   4.107   6.472
    3TYR     BB  561   5.943   3.700   6.164
    3TYR    SC1  562   5.915   3.439   6.039
    3TYR    SC2  563   6.137   3.358   5.989
    3TYR    SC3  564   6.073   3.133   6.057
    1TYR     BB  565  -0.185   3.654   5.045
    1TYR    SC1  566  -0.254   3.413   5.228
    1TYR    SC2  567  -0.062   3.278   5.171
    1TYR    SC3  568  -0.044   3.202   5.401
    2TYR     BB  569   0.165   3.606   5.177
    2TYR    SC1  570   0.256   3.810   4.960
    2TYR    SC2  571   0.491   3.804   5.011
    2TYR    SC3  572   0.546   3.819   4.775
    3TYR     BB  573   0.423   3.429   5.101
    3TYR    SC1  574   0.415   3.225   5.309
    3TYR    SC2  575   0.602   3.077   5.273
    3TYR    SC3  576   0.643   3.065   5.512
    1TYR     BB  577   6.588   0.702   0.984
    1TYR    SC1  578   6.443   0.569   0.743
    1TYR    SC2  579   6.439   0.763   0.601
    1TYR    SC3  580   6.482   0.625   0.406
    2TYR     BB  581   6.811   0.851   0.719
    2TYR    SC1  582   6.929   1.030   0.945
    2TYR    SC2  583   7.084   1.152   0.807
    2TYR    SC3  584   7.039   1.356   0.931
    3TYR     BB  585   6.809   1.112   0.530
    3TYR    SC1  586   6.737   0.995   0.273
    3TYR    SC2  587   6.729   1.174   0.112
    3TYR    SC3  588   6.834   1.032  -0.055
    1TYR     BB  589   3.157   0.200   3.012
    1TYR    SC1  590   2.877   0.220   3.148
    1TYR    SC2  591   2.922   0.068   3.329
    1TYR    SC3  592   2.794   0.206   3.482
    2TYR     BB  593   3.288   0.225   3.365
    2TYR    SC1  594   3.567   0.153   3.247
    2TYR    SC2  595   3.687   0.154   3.455
    2TYR    SC3  596   3.820  -0.036   3.384
    3TYR     BB  597   3.351   0.023   3.607
    3TYR    SC1  598   3.126   0.075   3.785
    3TYR    SC2  599   3.152  -0.068   3.977
    3TYR    SC3  600   3.078   0.111   4.124
    1TYR     BB  601   2.515   4.197   2.363
    1TYR    SC1  602   2.366   4.464   2.307
    1TYR    SC2  603   2.210   4.449   2.490
    1TYR    SC3  604   2.226   4.688   2.529
    2TYR     BB  605   2.503   4.310   2.723
    2TYR    SC1  606   2.603   4.024   2.797
    2TYR    SC2  607   2.604   4.055   3.036
    2TYR    SC3  608   2.524   3.828   3.068
    3TYR     BB  609   2.296   4.288   2.969
    3TYR    SC1  610   2.188   4.558   2.977
    3TYR    SC2  611   2.028   4.567   3.157
    3TYR    SC3  612   2.106   4.788   3.220
    1TYR     BB  613   2.640   4.729   4.959
    1TYR    SC1  614   2.590   4.699   4.653
    1TYR    SC2  615   2.416   4.865   4.637
    1TYR    SC3  616   2.502   4.938   4.421
    2TYR     BB  617   2.622   5.099   4.887
    2TYR    SC1  618   2.619   5.141   5.196
    2TYR    SC2  619   2.601   5.381   5.192
    2TYR    SC3  620   2.452   5.376   5.383
    3TYR     BB  621   2.391   5.323   4.867
    3TYR    SC1  622   2.373   5.360   4.578
    3TYR    SC2  623   2.204   5.526   4.537
    3TYR    SC3  624   2.339   5.625   4.361
    1TYR     BB  625   3.695   2.127   0.641
    1TYR    SC1  626   3.913   1.935   0.750
    1TYR    SC2  627   3.904   1.776   0.569
    1TYR    SC3  628   4.145   1.747   0.579
    2TYR     BB  629   3.871   2.079   0.311
    2TYR    SC1  630   3.629   2.226   0.181
    2TYR    SC2  631   3.705   2.211  -0.047
    2TYR    SC3  632   3.478   2.173  -0.124
    3TYR     BB  633   3.859   1.869   0.067
    3TYR    SC1  634   4.100   1.713   0.114
    3TYR    SC2  635   4.113   1.546  -0.059
    3TYR    SC3  636   4.353   1.579  -0.077
    1TYR     BB  637   2.344   4.795   7.111
    1TYR    SC1  638   2.435   4.501   7.157
    1TYR    SC2  639   2.461   4.443   6.925
    1TYR    SC3  640   2.658   4.310   6.978
    2TYR     BB  641   2.624   4.802   6.858
    2TYR    SC1  642   2.510   5.076   6.766
    2TYR    SC2  643   2.669   5.115   6.590
    2TYR    SC3  644   2.495   5.213   6.451
    3TYR     BB  645   2.660   4.726   6.547
    3TYR    SC1  646   2.807   4.475   6.566
    3TYR    SC2  647   2.847   4.398   6.342
    3TYR    SC3  648   3.071   4.326   6.403
    1TYR     BB  649   1.195   0.737   5.903
    1TYR    SC1  650   0.930   0.592   5.827
    1TYR    SC2  651   0.979   0.383   5.935
    1TYR    SC3  652   0.748   0.361   6.005
    2TYR     BB  653   1.136   0.584   6.243
    2TYR    SC1  654   1.424   0.678   6.315
    2TYR    SC2  655   1.428   0.590   6.539
    2TYR    SC3  656   1.661   0.527   6.513
    3TYR     BB  657   1.204   0.306   6.390
    3TYR    SC1  658   0.943   0.176   6.389
    3TYR    SC2  659   0.968  -0.038   6.495
    3TYR    SC3  660   0.754  -0.011   6.608
    1TYR     BB  661   2.733   1.446   3.090
    1TYR    SC1  662   2.763   1.183   3.253
    1TYR    SC2  663   2.528   1.147   3.291
    1TYR    SC3  664   2.557   0.907   3.263
    2TYR     BB  665   2.454   1.262   2.916
    2TYR    SC1  666   2.380   1.535   2.785
    2TYR    SC2  667   2.190   1.457   2.660
    2TYR    SC3  668   2.071   1.664   2.705
    3TYR     BB  669   2.139   1.215   2.964
    3TYR    SC1  670   2.137   0.939   3.059
    3TYR    SC2  671   1.908   0.879   3.103
    3TYR    SC3  672   1.944   0.658   3.009
    1TYR     BB  673   7.788   6.353   4.277
    1TYR    SC1  674   7.870   6.648   4.331
    1TYR    SC2  675   7.747   6.674   4.537
    1TYR    SC3  676   7.927   6.808   4.630
    2TYR     BB  677   7.858   6.306   4.645
    2TYR    SC1  678   7.729   6.024   4.615
    2TYR    SC2  679   7.751   5.958   4.845
    2TYR    SC3  680   7.535   5.848   4.838
    3TYR     BB  681   7.695   6.338   4.921
    3TYR    SC1  682   7.808   6.586   5.025
    3TYR    SC2  683   7.700   6.632   5.235
    3TYR    SC3  684   7.910   6.705   5.331
    1TYR     BB  685   1.996   2.961   7.160
    1TYR    SC1  686   1.849   3.196   7.302
    1TYR    SC2  687   1.779   3.072   7.496
    1TYR    SC3  688   1.821   3.265   7.637
    2TYR     BB  689   2.135   2.891   7.503
    2TYR    SC1  690   2.244   2.624   7.385
    2TYR    SC2  691   2.342   2.540   7.588
    2TYR    SC3  692   2.273   2.314   7.532
    3TYR     BB  693   2.044   2.724   7.763
    3TYR    SC1  694   1.961   2.938   7.942
    3TYR    SC2  695   1.886   2.836   8.147
    3TYR    SC3  696   1.992   3.013   8.277
    1TYR     BB  697   1.402   5.445   3.221
    1TYR    SC1  698   1.212   5.433   2.975
    1TYR    SC2  699   1.382   5.449   2.806
    1TYR    SC3  700   1.262   5.291   2.665
    2TYR     BB  701   1.613   5.204   3.021
    2TYR    SC1  702   1.835   5.248   3.235
    2TYR    SC2  703   2.000   5.105   3.135
    2TYR    SC3  704   2.176   5.261   3.197
    3TYR     BB  705   1.843   5.223   2.796
    3TYR    SC1  706   1.695   5.149   2.557
    3TYR    SC2  707   1.848   5.156   2.371
    3TYR    SC3  708   1.750   4.955   2.278
    1TYR     BB  709   4.144   3.744   1.033
    1TYR    SC1  710   4.280   3.999   0.918
    1TYR    SC2  711   4.169   4.158   1.060
    1TYR    SC3  712   4.372   4.289   1.078
    2TYR     BB  713   4.211   3.905   1.367
    2TYR    SC1  714   4.031   3.683   1.490
    2TYR    SC2  715   4.045   3.757   1.718
    2TYR    SC3  716   3.812   3.700   1.755
    3TYR     BB  717   4.063   4.115   1.560
    3TYR    SC1  718   4.222   4.355   1.517
    3TYR    SC2  719   4.129   4.530   1.653
    3TYR    SC3  720   4.351   4.610   1.709
    1TYR     BB  721   3.550   1.786   7.235
    1TYR    SC1  722   3.681   1.541   7.374
    1TYR    SC2  723   3.480   1.411   7.398
    1TYR    SC3  724   3.603   1.207   7.348
    2TYR     BB  725   3.367   1.526   7.033
    2TYR    SC1  726   3.191   1.759   6.925
    2TYR    SC2  727   3.047   1.625   6.786
    2TYR    SC3  728   2.856   1.763   6.845
    3TYR     BB  729   3.097   1.353   7.063
    3TYR    SC1  730   3.204   1.091   7.131
    3TYR    SC2  731   3.018   0.941   7.159
    3TYR    SC3  732   3.140   0.763   7.047
    1TYR     BB  733   6.049   4.559   3.302
    1TYR    SC1  734   6.239   4.469   3.532
    1TYR    SC2  735   6.324   4.688   3.586
    1TYR    SC3  736   6.324   4.634   3.822
    2TYR     BB  737   5.956   4.837   3.538
    2TYR    SC1  738   5.804   4.966   3.299
    2TYR    SC2  739   5.729   5.163   3.415
    2TYR    SC3  740   5.766   5.297   3.216
    3TYR     BB  741   6.067   5.131   3.610
    3TYR    SC1  742   6.198   5.083   3.865
    3TYR    SC2  743   6.291   5.292   3.940
    3TYR    SC3  744   6.224   5.243   4.169
    1TYR     BB  745   2.984   7.221   0.405
    1TYR    SC1  746   2.892   7.483   0.266
    1TYR    SC2  747   2.941   7.632   0.449
    1TYR    SC3  748   3.018   7.802   0.294
    2TYR     BB  749   3.279   7.428   0.517
    2TYR    SC1  750   3.353   7.190   0.703
    2TYR    SC2  751   3.547   7.291   0.803
    2TYR    SC3  752   3.492   7.192   1.018
    3TYR     BB  753   3.347   7.625   0.763
    3TYR    SC1  754   3.331   7.886   0.634
    3TYR    SC2  755   3.379   8.053   0.801
    3TYR    SC3  756   3.508   8.180   0.640
    1TYR     BB  757   7.043   7.422   0.630
    1TYR    SC1  758   6.852   7.470   0.870
    1TYR    SC2  759   6.879   7.254   0.973
    1TYR    SC3  760   6.872   7.354   1.194
    2TYR     BB  761   7.270   7.270   0.890
    2TYR    SC1  762   7.445   7.169   0.653
    2TYR    SC2  763   7.610   7.055   0.785
    2TYR    SC3  764   7.623   6.877   0.620
    3TYR     BB  765   7.310   6.981   1.026
    3TYR    SC1  766   7.192   7.024   1.289
    3TYR    SC2  767   7.210   6.818   1.411
    3TYR    SC3  768   7.265   6.940   1.614
    1TYR     BB  769   5.141   8.028   6.371
    1TYR    SC1  770   5.127   7.719   6.405
    1TYR    SC2  771   5.303   7.664   6.250
    1TYR    SC3  772   5.380   7.485   6.395
    2TYR     BB  773   5.514   7.975   6.388
    2TYR    SC1  774   5.542   8.272   6.301
    2TYR    SC2  775   5.783   8.278   6.295
    2TYR    SC3  776   5.778   8.420   6.098
    3TYR     BB  777   5.751   7.905   6.181
    3TYR    SC1  778   5.801   7.625   6.245
    3TYR    SC2  779   5.978   7.548   6.100
    3TYR    SC3  780   6.076   7.421   6.282
    1TYR     BB  781   3.544   4.168   7.319
    1TYR    SC1  782   3.279   4.229   7.470
    1TYR    SC2  783   3.322   4.090   7.662
    1TYR    SC3  784   3.220   4.255   7.808
    2TYR     BB  785   3.703   4.212   7.658
    2TYR    SC1  786   3.964   4.101   7.530
    2TYR    SC2  787   4.099   4.109   7.729
    2TYR    SC3  788   4.207   3.901   7.668
    3TYR     BB  789   3.764   4.027   7.914
    3TYR    SC1  790   3.560   4.119   8.101
    3TYR    SC2  791   3.586   3.992   8.304
    3TYR    SC3  792   3.541   4.191   8.437
    1TYR     BB  793   1.012   5.159   6.022
    1TYR    SC1  794   1.268   5.329   5.976
    1TYR    SC2  795   1.405   5.152   5.886
    1TYR    SC3  796   1.505   5.306   5.727
    2TYR     BB  797   1.089   5.019   5.681
    2TYR    SC1  798   0.869   4.807   5.737
    2TYR    SC2  799   0.891   4.686   5.530
    2TYR    SC3  800   0.854   4.475   5.646
    3TYR     BB  801   1.270   4.781   5.560
    3TYR    SC1  802   1.493   4.930   5.447
    3TYR    SC2  803   1.645   4.771   5.349
    3TYR    SC3  804   1.684   4.919   5.161
    1TYR     BB  805   4.845   6.234   0.368
    1TYR    SC1  806   4.539   6.181   0.380
    1TYR    SC2  807   4.548   5.992   0.528
    1TYR    SC3  808   4.346   6.066   0.641
    2TYR     BB  809   4.831   6.178   0.740
    2TYR    SC1  810   5.142   6.176   0.734
    2TYR    SC2  811   5.176   6.136   0.969
    2TYR    SC3  812   5.364   5.991   0.920
    3TYR     BB  813   4.846   5.926   0.941
    3TYR    SC1  814   4.567   5.900   1.019
    3TYR    SC2  815   4.552   5.714   1.172
    3TYR    SC3  816   4.392   5.835   1.309
    1TYR     BB  817   4.172   2.967   4.678
    1TYR    SC1  818   4.261   3.234   4.544
    1TYR    SC2  819   4.461   3.149   4.441
    1TYR    SC3  820   4.421   3.286   4.244
    2TYR     BB  821   4.264   2.814   4.346
    2TYR    SC1  822   4.230   2.537   4.484
    2TYR    SC2  823   4.289   2.403   4.293
    2TYR    SC3  824   4.406   2.246   4.437
    3TYR     BB  825   4.531   2.698   4.207
    3TYR    SC1  826   4.597   2.913   4.022
    3TYR    SC2  827   4.797   2.848   3.904
    3TYR    SC3  828   4.709   2.939   3.697
    1TYR     BB  829   5.605   4.911   5.535
    1TYR    SC1  830   5.310   4.872   5.446
    1TYR    SC2  831   5.340   4.939   5.217
    1TYR    SC3  832   5.185   4.768   5.143
    2TYR     BB  833   5.687   4.741   5.209
    2TYR    SC1  834   5.983   4.821   5.262
    2TYR    SC2  835   6.075   4.729   5.059
    2TYR    SC3  836   6.227   4.916   5.039
    3TYR     BB  837   5.730   4.829   4.902
    3TYR    SC1  838   5.481   4.739   4.781
    3TYR    SC2  839   5.490   4.795   4.547
    3TYR    SC3  840   5.387   4.583   4.489
    1TYR     BB  841   6.763   6.437   4.235
    1TYR    SC1  842   6.847   6.409   4.534
    1TYR    SC2  843   6.720   6.210   4.581
    1TYR    SC3  844   6.899   6.126   4.721
    2TYR     BB  845   6.824   6.065   4.223
    2TYR    SC1  846   6.692   6.071   3.941
    2TYR    SC2  847   6.708   5.835   3.897
    2TYR    SC3  848   6.491   5.837   3.789
    3TYR     BB  849   6.654   5.798   4.283
    3TYR    SC1  850   6.768   5.715   4.539
    3TYR    SC2  851   6.655   5.513   4.606
    3TYR    SC3  852   6.864   5.419   4.686
    1TYR     BB  853   4.861   5.071   3.532
    1TYR    SC1  854   5.014   5.341   3.562
    1TYR    SC2  855   4.969   5.423   3.340
    1TYR    SC3  856   4.942   5.649   3.426
    2TYR     BB  857   4.596   5.282   3.367
    2TYR    SC1  858   4.460   5.015   3.284
    2TYR    SC2  859   4.276   5.113   3.164
    2TYR    SC3  860   4.288   4.937   2.997
    3TYR     BB  861   4.534   5.391   3.070
    3TYR    SC1  862   4.611   5.671   3.095
    3TYR    SC2  863   4.574   5.776   2.881
    3TYR    SC3  864   4.488   5.976   2.991
    1TYR     BB  865   4.066   6.102   2.032
    1TYR    SC1  866   4.102   6.341   2.228
    1TYR    SC2  867   4.280   6.245   2.358
    1TYR    SC3  868   4.389   6.462   2.376
    2TYR     BB  869   4.443   6.102   2.022
    2TYR    SC1  870   4.421   5.831   1.870
    2TYR    SC2  871   4.657   5.791   1.848
    2TYR    SC3  872   4.624   5.554   1.886
    3TYR     BB  873   4.682   5.972   2.195
    3TYR    SC1  874   4.778   6.203   2.343
    3TYR    SC2  875   4.961   6.130   2.482
    3TYR    SC3  876   5.083   6.334   2.434
    1TYR     BB  877   4.446   4.226   4.160
    1TYR    SC1  878   4.319   4.350   3.904
    1TYR    SC2  879   4.275   4.142   3.791
    1TYR    SC3  880   4.065   4.230   3.706
    2TYR     BB  881   4.159   3.982   4.138
    2TYR    SC1  882   4.305   3.819   4.360
    2TYR    SC2  883   4.145   3.640   4.373
    2TYR    SC3  884   4.324   3.479   4.404
    3TYR     BB  885   4.099   3.703   3.989
    3TYR    SC1  886   3.921   3.790   3.776
    3TYR    SC2  887   3.861   3.595   3.648
    3TYR    SC3  888   3.633   3.674   3.627
    1TYR     BB  889   5.073   4.547   0.674
    1TYR    SC1  890   4.887   4.753   0.532
    1TYR    SC2  891   5.026   4.788   0.338
    1TYR    SC3  892   4.829   4.801   0.197
    2TYR     BB  893   5.104   4.396   0.330
    2TYR    SC1  894   5.331   4.219   0.448
    2TYR    SC2  895   5.386   4.102   0.244
    2TYR    SC3  896   5.622   4.108   0.301
    3TYR     BB  897   5.290   4.440   0.070
    3TYR    SC1  898   5.107   4.579  -0.108
    3TYR    SC2  899   5.226   4.624  -0.313
    3TYR    SC3  900   5.028   4.570  -0.443
    1TYR     BB  901   1.836   6.627   3.816
    1TYR    SC1  902   2.022   6.735   3.592
    1TYR    SC2  903   2.227   6.647   3.680
    1TYR    SC3  904   2.305   6.596   3.455
    2TYR     BB  905   2.036   6.310   3.776
    2TYR    SC1  906   1.893   6.209   4.034
    2TYR    SC2  907   2.005   5.995   4.047
    2TYR    SC3  908   2.015   6.012   4.289
    3TYR     BB  909   2.310   6.188   3.895
    3TYR    SC1  910   2.489   6.221   3.668
    3TYR    SC2  911   2.705   6.136   3.733
    3TYR    SC3  912   2.736   6.036   3.514
    1TYR     BB  913   1.441   6.171   0.982
    1TYR    SC1  914   1.200   6.328   1.099
    1TYR    SC2  915   1.159   6.183   1.287
    1TYR    SC3  916   1.106   6.374   1.427
    2TYR     BB  917   1.554   6.151   1.341
    2TYR    SC1  918   1.770   5.949   1.243
    2TYR    SC2  919   1.868   5.905   1.459
    2TYR    SC3  920   1.897   5.671   1.401
    3TYR     BB  921   1.503   5.957   1.593
    3TYR    SC1  922   1.323   6.119   1.755
    3TYR    SC2  923   1.270   5.992   1.952
    3TYR    SC3  924   1.284   6.192   2.089
    1TYR     BB  925   7.639   5.488   3.986
    1TYR    SC1  926   7.853   5.541   3.768
    1TYR    SC2  927   7.753   5.407   3.595
    1TYR    SC3  928   7.817   5.570   3.427
    2TYR     BB  929   7.394   5.544   3.705
    2TYR    SC1  930   7.174   5.441   3.900
    2TYR    SC2  931   6.989   5.457   3.747
    2TYR    SC3  932   6.894   5.252   3.835
    3TYR     BB  933   7.256   5.365   3.475
    3TYR    SC1  934   7.404   5.451   3.240
    3TYR    SC2  935   7.318   5.329   3.051
    3TYR    SC3  936   7.332   5.528   2.912
    1TYR     BB  937   4.788   7.389   4.125
    1TYR    SC1  938   5.013   7.176   4.154
    1TYR    SC2  939   4.967   7.058   3.950
    1TYR    SC3  940   5.205   7.025   3.912
    2TYR     BB  941   4.904   7.407   3.767
    2TYR    SC1  942   4.651   7.579   3.712
    2TYR    SC2  943   4.687   7.610   3.476
    2TYR    SC3  944   4.449   7.590   3.433
    3TYR     BB  945   4.842   7.251   3.492
    3TYR    SC1  946   5.081   7.087   3.464
    3TYR    SC2  947   5.058   6.958   3.262
    3TYR    SC3  948   5.293   6.992   3.210
    1TYR     BB  949   3.418   1.653   3.616
    1TYR    SC1  950   3.695   1.723   3.738
    1TYR    SC2  951   3.615   1.886   3.898
    1TYR    SC3  952   3.776   1.808   4.062
    2TYR     BB  953   3.302   1.649   3.975
    2TYR    SC1  954   3.012   1.631   3.863
    2TYR    SC2  955   2.899   1.632   4.075
    2TYR    SC3  956   2.722   1.770   3.984
    3TYR     BB  957   3.193   1.864   4.189
    3TYR    SC1  958   3.426   1.897   4.360
    3TYR    SC2  959   3.369   2.057   4.531
    3TYR    SC3  960   3.487   1.926   4.698
    1TYR     BB  961   5.667   1.445   5.146
    1TYR    SC1  962   5.860   1.271   5.317
    1TYR    SC2  963   6.061   1.322   5.193
    1TYR    SC3  964   6.190   1.326   5.399
    2TYR     BB  965   5.942   1.702   5.165
    2TYR    SC1  966   5.782   1.863   4.952
    2TYR    SC2  967   5.937   2.046   4.932
    2TYR    SC3  968   5.896   2.057   4.692
    3TYR     BB  969   6.209   1.773   4.999
    3TYR    SC1  970   6.416   1.673   5.180
    3TYR    SC2  971   6.629   1.715   5.076
    3TYR    SC3  972   6.724   1.779   5.290
    1TYR     BB  973   1.490   0.960   4.315
    1TYR    SC1  974   1.787   1.003   4.397
    1TYR    SC2  975   1.865   1.083   4.183
    1TYR    SC3  976   2.011   1.243   4.293
    2TYR     BB  977   1.528   1.295   4.146
    2TYR    SC1  978   1.251   1.239   4.014
    2TYR    SC2  979   1.240   1.442   3.885
    2TYR    SC3  980   1.137   1.322   3.700
    3TYR     BB  981   1.629   1.403   3.860
    3TYR    SC1  982   1.890   1.512   3.929
    3TYR    SC2  983   1.987   1.600   3.727
    3TYR    SC3  984   2.074   1.792   3.849
    1TYR     BB  985   3.026   1.954   6.104
    1TYR    SC1  986   3.184   1.694   6.170
    1TYR    SC2  987   3.334   1.703   5.982
    1TYR    SC3  988   3.516   1.621   6.120
    2TYR     BB  989   3.368   2.098   6.034
    2TYR    SC1  990   3.220   2.345   5.915
    2TYR    SC2  991   3.417   2.467   5.850
    2TYR    SC3  992   3.306   2.544   5.648
    3TYR     BB  993   3.569   2.113   5.783
    3TYR    SC1  994   3.770   1.915   5.858
    3TYR    SC2  995   3.934   1.908   5.683
    3TYR    SC3  996   4.112   1.888   5.846
    1TYR     BB  997   1.763   6.693   2.717
    1TYR    SC1  998   1.489   6.607   2.838
    1TYR    SC2  999   1.518   6.711   3.053
    1TYR    SC3 1000   1.284   6.775   3.057
    2TYR     BB 1001   1.683   7.027   2.872
    2TYR    SC1 1002   1.976   7.108   2.803
    2TYR    SC2 1003   1.967   7.330   2.896
    2TYR    SC3 1004   2.194   7.309   2.978
    3TYR     BB 1005   1.724   7.169   3.158
    3TYR    SC1 1006   1.453   7.159   3.266
    3TYR    SC2 1007   1.458   7.261   3.484
    3TYR    SC3 1008   1.245   7.369   3.442
    1TYR     BB 1009   5.798   7.013   6.090
    1TYR    SC1 1010   6.092   6.915   6.113
    1TYR    SC2 1011   6.109   6.930   6.353
    1TYR    SC3 1012   6.242   6.727   6.359
    2TYR     BB 1013   5.738   6.782   6.382
    2TYR    SC1 1014   5.456   6.911   6.403
    2TYR    SC2 1015   5.381   6.785   6.595
    2TYR    SC3 1016   5.267   6.981   6.683
    3TYR     BB 1017   5.758   6.800   6.703
    3TYR    SC1 1018   6.003   6.651   6.754
    3TYR    SC2 1019   6.039   6.651   6.992
    3TYR    SC3 1020   6.113   6.420   6.984
    1TYR     BB 1021   4.652   3.445   5.826
    1TYR    SC1 1022   4.656   3.366   5.526
    1TYR    SC2 1023   4.424   3.303   5.509
    1TYR    SC3 1024   4.410   3.399   5.287
    2TYR     BB 1025   4.328   3.616   5.738
    2TYR    SC1 1026   4.287   3.655   6.044
    2TYR    SC2 1027   4.073   3.765   6.030
    2TYR    SC3 1028   3.996   3.648   6.229
    3TYR     BB 1029   4.017   3.535   5.719
    3TYR    SC1 1030   3.980   3.519   5.430
    3TYR    SC2 1031   3.751   3.458   5.390
    3TYR    SC3 1032   3.740   3.612   5.202
    1TYR     BB 1033   0.497   3.554   1.792
    1TYR    SC1 1034   0.688   3.789   1.721
    1TYR    SC2 1035   0.664   3.909   1.929
    1TYR    SC3 1036   0.899   3.969   1.925
    2TYR     BB 1037   0.673   3.560   2.125
    2TYR    SC1 1038   0.455   3.362   2.224
    2TYR    SC2 1039   0.534   3.344   2.451
    2TYR    SC3 1040   0.306   3.338   2.534
    3TYR     BB 1041   0.641   3.717   2.404
    3TYR    SC1 1042   0.861   3.908   2.388
    3TYR    SC2 1043   0.858   4.040   2.590
    3TYR    SC3 1044   1.100   4.034   2.601
    1TYR     BB 1045   6.348   4.049   4.997
    1TYR    SC1 1046   6.127   4.209   5.146
    1TYR    SC2 1047   5.955   4.183   4.980
    1TYR    SC3 1048   5.787   4.159   5.153
    2TYR     BB 1049   6.071   3.804   4.928
    2TYR    SC1 1050   6.268   3.663   4.733
    2TYR    SC2 1051   6.118   3.491   4.658
    2TYR    SC3 1052   6.206   3.507   4.433
    3TYR     BB 1053   5.842   3.765   4.704
    3TYR    SC1 1054   5.605   3.851   4.850
    3TYR    SC2 1055   5.417   3.831   4.701
    3TYR    SC3 1056   5.278   3.746   4.882
    1TYR     BB 1057   3.704   5.726   3.662
    1TYR    SC1 1058   3.895   5.606   3.448
    1TYR    SC2 1059   3.754   5.647   3.257
    1TYR    SC3 1060   3.947   5.703   3.121
    2TYR     BB 1061   3.658   6.003   3.411
    2TYR    SC1 1062   3.426   6.105   3.593
    2TYR    SC2 1063   3.362   6.292   3.456
    2TYR    SC3 1064   3.128   6.252   3.506
    3TYR     BB 1065   3.467   6.061   3.157
    3TYR    SC1 1066   3.652   6.017   2.936
    3TYR    SC2 1067   3.530   6.054   2.732
    3TYR    SC3 1068   3.722   6.166   2.634
    1TYR     BB 1069   7.641   1.405   3.848
    1TYR    SC1 1070   7.490   1.244   4.068
    1TYR    SC2 1071   7.666   1.248   4.232
    1TYR    SC3 1072   7.504   1.276   4.411
    2TYR     BB 1073   7.743   1.628   4.134
    2TYR    SC1 1074   7.939   1.764   3.935
    2TYR    SC2 1075   8.034   1.921   4.090
    2TYR    SC3 1076   8.254   1.893   3.990
    3TYR     BB 1077   7.979   1.636   4.353
    3TYR    SC1 1078   7.838   1.549   4.593
    3TYR    SC2 1079   7.997   1.546   4.774
    3TYR    SC3 1080   7.831   1.636   4.926
    1TYR     BB 1081   2.083   0.937   5.684
    1TYR    SC1 1082   1.824   1.109   5.697
    1TYR    SC2 1083   1.814   1.163   5.463
    1TYR    SC3 1084   1.572   1.142   5.465
    2TYR     BB 1085   1.924   0.789   5.376
    2TYR    SC1 1086   2.199   0.652   5.323
    2TYR    SC2 1087   2.137   0.543   5.117
    2TYR    SC3 1088   2.357   0.587   5.025
    3TYR     BB 1089   1.912   0.858   5.062
    3TYR    SC1 1090   1.642   0.964   5.037
    3TYR    SC2 1091   1.608   1.025   4.807
    3TYR    SC3 1092   1.381   0.938   4.814
    1TYR     BB 1093   0.069   1.656   2.201
    1TYR    SC1 1094  -0.193   1.498   2.259
    1TYR    SC2 1095  -0.121   1.397   2.465
    1TYR    SC3 1096  -0.343   1.424   2.560
    2TYR     BB 1097   0.053   1.742   2.568
    2TYR    SC1 1098   0.341   1.857   2.535
    2TYR    SC2 1099   0.372   1.923   2.765
    2TYR    SC3 1100   0.604   1.854   2.756
    3TYR     BB 1101   0.151   1.609   2.845
    3TYR    SC1 1102  -0.100   1.508   2.952
    3TYR    SC2 1103  -0.052   1.402   3.163
    3TYR    SC3 1104  -0.254   1.495   3.260
    1TYR     BB 1105   5.421   1.927   3.124
    1TYR    SC1 1106   5.310   2.096   2.887
    1TYR    SC2 1107   5.390   1.954   2.711
    1TYR    SC3 1108   5.187   1.993   2.583
    2TYR     BB 1109   5.286   1.635   2.928
    2TYR    SC1 1110   5.438   1.453   3.130
    2TYR    SC2 1111   5.378   1.242   3.031
    2TYR    SC3 1112   5.598   1.153   3.078
    3TYR     BB 1113   5.392   1.441   2.693
    3TYR    SC1 1114   5.245   1.544   2.464
    3TYR    SC2 1115   5.308   1.413   2.272
    3TYR    SC3 1116   5.078   1.412   2.193
    1TYR     BB 1117   2.354   7.503   7.805
    1TYR    SC1 1118   2.316   7.473   7.498
    1TYR    SC2 1119   2.117   7.607   7.480
    1TYR    SC3 1120   2.194   7.699   7.269
    2TYR     BB 1121   2.274   7.866   7.741
    2TYR    SC1 1122   2.257   7.899   8.050
    2TYR    SC2 1123   2.199   8.132   8.051
    2TYR    SC3 1124   2.048   8.097   8.238
    3TYR     BB 1125   2.009   8.048   7.719
    3TYR    SC1 1126   1.991   8.089   7.431
    3TYR    SC2 1127   1.797   8.224   7.389
    3TYR    SC3 1128   1.917   8.349   7.218
    1TYR     BB 1129   1.833   7.835   1.637
    1TYR    SC1 1130   1.912   8.050   1.847
    1TYR    SC2 1131   1.702   8.053   1.966
    1TYR    SC3 1132   1.819   8.079   2.177
    2TYR     BB 1133   1.684   7.655   1.933
    2TYR    SC1 1134   1.554   7.461   1.728
    2TYR    SC2 1135   1.438   7.323   1.887
    2TYR    SC3 1136   1.248   7.304   1.737
    3TYR     BB 1137   1.403   7.655   2.092
    3TYR    SC1 1138   1.475   7.802   2.333
    3TYR    SC2 1139   1.277   7.816   2.470
    3TYR    SC3 1140   1.409   7.777   2.670
    1TYR     BB 1141   3.640   6.416   0.660
    1TYR    SC1 1142   3.449   6.330   0.891
    1TYR    SC2 1143   3.398   6.111   0.805
    1TYR    SC3 1144   3.400   6.019   1.030
    2TYR     BB 1145   3.781   6.069   0.699
    2TYR    SC1 1146   3.939   6.123   0.436
    2TYR    SC2 1147   4.047   5.908   0.422
    2TYR    SC3 1148   4.021   5.908   0.180
    3TYR     BB 1149   3.716   5.775   0.583
    3TYR    SC1 1150   3.590   5.649   0.815
    3TYR    SC2 1151   3.531   5.425   0.752
    3TYR    SC3 1152   3.600   5.342   0.970
    1TYR     BB 1153   7.146   4.735   7.127
    1TYR    SC1 1154   7.448   4.776   7.190
    1TYR    SC2 1155   7.420   4.956   7.347
    1TYR    SC3 1156   7.600   4.868   7.485
    2TYR     BB 1157   7.103   4.767   7.500
    2TYR    SC1 1158   6.797   4.780   7.445
    2TYR    SC2 1159   6.728   4.807   7.674
    2TYR    SC3 1160   6.553   4.962   7.607
    3TYR     BB 1161   7.063   5.007   7.712
    3TYR    SC1 1162   7.327   5.019   7.834
    3TYR    SC2 1163   7.322   5.195   7.999
    3TYR    SC3 1164   7.455   5.060   8.151
    1TYR     BB 1165   0.988   7.497   7.428
    1TYR    SC1 1166   0.734   7.639   7.538
    1TYR    SC2 1167   0.611   7.640   7.331
    1TYR    SC3 1168   0.404   7.595   7.449
    2TYR     BB 1169   0.742   7.270   7.255
    2TYR    SC1 1170   0.985   7.155   7.099
    2TYR    SC2 1171   0.861   6.999   6.964
    2TYR    SC3 1172   1.004   7.045   6.774
    3TYR     BB 1173   0.578   7.270   6.978
    3TYR    SC1 1174   0.310   7.338   7.069
    3TYR    SC2 1175   0.167   7.344   6.876
    3TYR    SC3 1176  -0.011   7.237   7.001
    1TYR     BB 1177   1.179   5.689   6.770
    1TYR    SC1 1178   1.171   5.704   7.081
    1TYR    SC2 1179   1.040   5.905   7.097
    1TYR    SC3 1180   0.921   5.815   7.289
    2TYR     BB 1181   0.813   5.775   6.795
    2TYR    SC1 1182   0.820   5.816   6.486
    2TYR    SC2 1183   0.590   5.881   6.460
    2TYR    SC3 1184   0.651   6.044   6.291
    3TYR     BB 1185   0.635   6.043   6.814
    3TYR    SC1 1186   0.559   6.041   7.095
    3TYR    SC2 1187   0.423   6.236   7.135
    3TYR    SC3 1188   0.276   6.108   7.279
    1TYR     BB 1189   1.463   4.020   6.739
    1TYR    SC1 1190   1.677   3.894   6.926
    1TYR    SC2 1191   1.688   4.076   7.084
    1TYR    SC3 1192   1.712   3.919   7.268
    2TYR     BB 1193   1.290   4.112   7.061
    2TYR    SC1 1194   1.099   4.286   6.888
    2TYR    SC2 1195   0.966   4.372   7.069
    2TYR    SC3 1196   0.952   4.588   6.960
    3TYR     BB 1197   1.301   4.356   7.272
    3TYR    SC1 1198   1.447   4.234   7.493
    3TYR    SC2 1199   1.468   4.400   7.666
    3TYR    SC3 1200   1.427   4.232   7.836
    4W        W 1201   4.010   5.867   1.494
    5W        W 1202   5.106   7.621   1.686
    6W        W 1203   5.683   0.072   4.002
    7W        W 1204   3.484   7.360   2.147
    8W        W 1205   2.537   3.319   3.106
    9W        W 1206   3.373   7.676   5.025
   10W        W 1207   3.635   6.731   2.684
   11W        W 1208   3.112   3.406   6.189
   12W        W 1209   3.682   2.669   5.460
   13W        W 1210   0.928   6.753   6.162
   14W        W 1211   2.972   7.428   4.929
   15W        W 1212   7.158   3.321   3.628
   16W        W 1213   6.117   6.459   3.240
   17W        W 1214   7.256   3.126   1.905
   18W        W 1215   4.479   7.132   6.676
   19W        W 1216   3.255   5.763   3.879
   20W        W 1217   3.957   5.410   1.281
   21W        W 1218   0.331   3.089   3.924
   22W        W 1219   1.975   6.238   5.081
   23W        W 1220   5.364   2.299   5.526
   24W        W 1221   2.937   0.037   5.008
   25W        W 1222   3.032   2.144   5.556
   26W        W 1223   0.429   6.932   3.776
   27W        W 1224   2.769   0.900   5.002
   28W        W 1225   1.095   7.587   5.519
   29W        W 1226   7.929   1.101   3.258
   30W        W 1227   0.180   4.842   4.244
   31W        W 1228   6.949   4.572   2.275
   32W        W 1229   7.654   6.841   5.972
   33W        W 1230   3.181   1.827   1.211
   34W        W 1231   4.354   0.291   4.467
   35W        W 1232   3.860   6.313   1.114
   36W        W 1233   3.430   4.024   2.538
   37W        W 1234   3.545   3.352   0.603
   38W        W 1235   2.630   7.135   2.585
   39W        W 1236   1.440   7.637   5.136
   40W        W 1237   5.533   0.490   3.665
   41W        W 1238   7.517   7.177   2.175
   42W        W 1239   3.736   4.560   6.753
   43W        W 1240   7.851   2.797   3.902
   44W        W 1241   4.819   6.067   6.364
   45W        W 1242   0.606   2.177   6.213
   46W        W 1243   4.639   0.850   7.747
   47W        W 1244   1.119   5.630   1.968
   48W        W 1245   1.180   3.272   4.125
   49W        W 1246   3.481   0.246   1.393
   50W        W 1247   1.407   0.692   3.619
   51W        W 1248   3.987   7.321   3.032
   52W        W 1249   0.387   1.607   7.962
   53W        W 1250   1.261   6.947   0.428
   54W        W 1251   2.307   7.508   1.384
   55W        W 1252   6.442   3.540   3.828
   56W        W 1253   3.367   3.532   4.367
   57W        W 1254   3.230   4.191   0.394
   58W        W 1255   4.803   0.282   2.107
   59W        W 1256   6.619   6.519   2.671
   60W        W 1257   7.309   0.266   0.194
   61W        W 1258   7.424   3.158   0.769
   62W        W 1259   5.880   5.100   7.157
   63W        W 1260   6.438   4.924   7.950
   64W        W 1261   5.937   5.515   6.608
   65W        W 1262   1.608   1.490   1.416
   66W        W 1263   0.024   0.654   7.928
   67W        W 1264   6.084   2.032   2.232
   68W        W 1265   5.349   6.095   3.993
   69W        W 1266   1.816   2.172   7.150
   70W        W 1267   5.173   2.658   1.706
   71W        W 1268   6.188   7.690   0.733
   72W        W 1269   1.268   4.458   2.892
   73W        W 1270   7.814   7.422   5.045
   74W        W 1271   0.819   0.266   0.956
   75W        W 1272   0.750   1.601   4.399
   76W        W 1273   1.797   0.656   7.022
   77W        W 1274   2.391   5.181   5.671
   78W        W 1275   5.650   7.086   2.695
   79W        W 1276   6.056   5.766   5.520
   80W        W 1277   7.915   3.693   5.877
   81W        W 1278   2.142   3.523   0.605
   82W        W 1279   5.241   5.224   4.271
   83W        W 1280   2.032   0.198   0.976
   84W        W 1281   5.922   4.214   1.251
   85W        W 1282   2.383   2.228   2.244
   86W        W 1283   6.591   0.284   2.179
   87W        W 1284   0.546   4.305   3.982
   88W        W 1285   2.239   4.351   6.496
   89W        W 1286   2.076   4.846   5.023
   90W        W 1287   0.275   5.572   1.494
   91W        W 1288   7.405   3.890   1.145
   92W        W 1289   3.515   4.667   4.942
   93W        W 1290   0.394   3.751   3.247
   94W        W 1291   6.165   6.953   1.111
   95W        W 1292   2.626   4.308   5.785
   96W        W 1293   7.728   0.116   7.149
   97W        W 1294   2.906   4.490   0.247
   98W        W 1295   3.678   0.463   4.635
   99W        W 1296   3.544   5.250   4.852
  100W        W 1297   0.266   3.307   6.067
  101W        W 1298   0.569   2.820   0.459
  102W        W 1299   5.281   7.196   5.432
  103W        W 1300   1.384   0.021   3.146
  104W        W 1301   0.853   7.400   1.141
  105W        W 1302   2.052   0.513   6.055
  106W        W 1303   3.922   2.298   4.099
  107W        W 1304   0.770   0.423   0.434
  108W        W 1305   2.607   7.020   6.969
  109W        W 1306   3.742   4.648   2.876
  110W        W 1307   3.497   4.702   7.377
  111W        W 1308   2.552   4.984   3.352
  112W        W 1309   2.997   4.317   1.667
  113W        W 1310   1.083   6.169   5.039
  114W        W 1311   6.865   3.091   5.000
  115W        W 1312   3.990   4.941   5.149
  116W        W 1313   3.354   0.720   1.981
  117W        W 1314   2.808   2.563   2.111
  118W        W 1315   7.565   5.936   3.753
  119W        W 1316   4.262   7.625   6.543
  120W        W 1317   4.190   2.869   5.895
  121W        W 1318   7.276   5.425   2.118
  122W        W 1319   6.424   7.762   5.954
  123W        W 1320   6.511   6.696   6.796
  124W        W 1321   0.846   5.585   3.603
  125W        W 1322   4.572   5.569   2.581
  126W        W 1323   3.830   6.778   4.809
  127W        W 1324   4.149   3.775   0.503
  128W        W 1325   4.457   1.760   0.882
  129W        W 1326   1.068   1.917   5.980
  130W        W 1327   5.990   6.957   3.045
  131W        W 1328   3.216   4.376   2.811
  132W        W 1329   0.845   5.393   2.613
  133W        W 1330   2.818   0.909   4.513
  134W        W 1331   7.292   5.438   1.135
  135W        W 1332   4.900   2.969   1.462
  136W        W 1333   4.043   3.164   1.239
  137W        W 1334   2.314   6.966   3.819
  138W        W 1335   5.000   7.333   7.344
  139W        W 1336   6.190   6.168   2.866
  140W        W 1337   0.307   4.777   6.065
  141W        W 1338   0.738   4.462   0.887
  142W        W 1339   0.049   0.664   0.817
  143W        W 1340   0.564   4.822   1.825
  144W        W 1341   4.805   5.036   6.253
  145W        W 1342   3.710   7.655   3.799
  146W        W 1343   5.786   5.809   0.667
  147W        W 1344   0.612   1.030   7.085
  148W        W 1345   7.280   1.793   5.959
  149W        W 1346   2.590   4.619   1.098
  150W        W 1347   7.009   0.626   1.518
  151W        W 1348   7.214   5.267   4.884
  152W        W 1349   4.013   7.430   1.986
  153W        W 1350   6.418   3.571   0.115
  154W        W 1351   1.334   5.273   7.004
  155W        W 1352   5.923   0.865   0.157
  156W        W 1353   2.861   6.097   1.457
  157W        W 1354   2.192   5.954   2.613
  158W        W 1355   7.281   6.851   6.945
  159W        W 1356   3.774   1.376   4.335
  160W        W 1357   3.628   3.244   0.059
  161W        W 1358   0.347   7.146   3.114
  162W        W 1359   3.678   3.672   0.904
  163W        W 1360   7.741   0.449   0.390
  164W        W 1361   1.469   6.671   5.382
  165W        W 1362   2.608   7.013   1.645
  166W        W 1363   6.769   5.310   0.874
  167W        W 1364   6.324   2.586   2.869
  168W        W 1365   6.121   1.236   7.826
  169W        W 1366   3.061   4.133   3.268
  170W        W 1367   3.865   0.144   3.816
  171W        W 1368   7.603   5.308   4.528
  172W        W 1369   5.208   1.841   7.851
  173W        W 1370   4.545   3.698   6.398
  174W        W 1371   3.100   4.999   4.788
  175W        W 1372   2.201   3.642   2.003
  176W        W 1373   1.229   1.111   5.164
  177W        W 1374   2.950   7.365   2.256
  178W        W 1375   1.495   6.815   1.374
  179W        W 1376   0.800   1.759   3.437
  180W        W 1377   3.677   4.566   4.058
  181W        W 1378   3.060   1.377   1.006
  182W        W 1379   6.225   4.142   0.710
  183W        W 1380   7.406   4.118   1.879
  184W        W 1381   4.317   0.499   1.908
  185W        W 1382   2.654   3.201   0.720
  186W        W 1383   1.345   2.618   2.437
  187W        W 1384   0.190   2.337   5.226
  188W        W 1385   2.731   6.631   0.322
  189W        W 1386   0.428   1.998   1.685
  190W        W 1387   5.736   6.311   2.823
  191W        W 1388   1.161   0.086   5.427
  192W        W 1389   5.285   7.593   5.142
  193W        W 1390   6.196   7.507   4.890
  194W        W 1391   3.485   4.051   4.160
  195W        W 1392   2.242   4.833   0.719
  196W        W 1393   5.497   6.915   4.538
  197W        W 1394   2.980   2.287   7.647
  198W        W 1395   0.298   4.821   0.245
  199W        W 1396   3.681   2.474   1.733
  200W        W 1397   1.186   3.504   2.720
  201W        W 1398   4.348   6.632   6.331
  202W        W 1399   5.498   6.883   4.043
  203W        W 1400   6.524   1.236   6.236
  204W        W 1401   5.849   0.071   4.560
  205W        W 1402   5.832   7.786   6.897
  206W        W 1403   0.698   6.968   1.731
  207W        W 1404   0.445   4.265   0.421
  208W        W 1405   2.499   6.618   5.107
  209W        W 1406   2.303   2.590   3.904
  210W        W 1407   0.907   7.773   0.823
  211W        W 1408   0.171   7.871   4.160
  212W        W 1409   0.862   3.544   6.816
  213W        W 1410   3.565   0.598   0.972
  214W        W 1411   7.566   2.429   7.824
  215W        W 1412   3.618   0.917   3.868
  216W        W 1413   1.347   4.575   1.821
  217W        W 1414   0.626   1.066   4.390
  218W        W 1415   6.745   7.306   0.052
  219W        W 1416   6.058   3.145   0.224
  220W        W 1417   2.843   6.163   4.726
  221W        W 1418   1.682   5.368   1.491
  222W        W 1419   3.664   4.151   3.681
  223W        W 1420   2.867   2.023   2.130
  224W        W 1421   6.988   1.672   0.535
  225W        W 1422   5.791   3.202   6.485
  226W        W 1423   7.851   2.088   6.810
  227W        W 1424   1.278   4.324   5.223
  228W        W 1425   1.768   4.770   0.877
  229W        W 1426   4.800   6.174   2.801
  230W        W 1427   0.995   2.283   0.036
  231W        W 1428   1.393   3.615   0.220
  232W        W 1429   6.572   3.457   4.822
  233W        W 1430   5.078   0.628   5.918
  234W        W 1431   1.958   2.741   4.232
  235W        W 1432   1.171   5.164   0.345
  236W        W 1433   6.131   1.084   5.860
  237W        W 1434   6.559   4.297   3.034
  238W        W 1435   1.930   4.403   3.622
  239W        W 1436   1.653   2.963   7.762
  240W        W 1437   7.497   7.503   2.703
  241W        W 1438   0.845   0.004   1.893
  242W        W 1439   3.685   4.593   1.142
  243W        W 1440   2.903   4.153   4.253
  244W        W 1441   4.763   6.233   1.425
  245W        W 1442   1.429   1.504   5.383
  246W        W 1443   3.548   0.353   4.147
  247W        W 1444   2.900   7.568   1.425
  248W        W 1445   1.814   4.223   0.816
  249W        W 1446   2.405   3.182   5.125
  250W        W 1447   1.022   4.864   2.682
  251W        W 1448   2.301   1.283   3.573
  252W        W 1449   5.328   7.070   1.319
  253W        W 1450   5.649   3.354   2.642
  254W        W 1451   3.528   6.732   6.577
  255W        W 1452   5.659   4.976   2.782
  256W        W 1453   7.641   5.803   3.075
  257W        W 1454   5.314   0.911   3.796
  258W        W 1455   5.943   4.663   6.881
  259W        W 1456   1.579   5.387   0.174
  260W        W 1457   0.395   0.226   3.592
  261W        W 1458   0.846   4.409   1.617
  262W        W 1459   4.036   5.543   3.924
  263W        W 1460   0.108   5.363   5.096
  264W        W 1461   4.218   6.098   3.471
  265W        W 1462   1.671   4.157   5.560
  266W        W 1463   7.044   7.394   2.370
  267W        W 1464   1.383   5.875   3.643
  268W        W 1465   5.422   3.768   7.884
  269W        W 1466   6.533   5.993   5.084
  270W        W 1467   3.025   4.593   7.244
  271W        W 1468   5.675   6.250   7.689
  272W        W 1469   2.804   4.582   3.176
  273W        W 1470   4.342   0.358   3.837
  274W        W 1471   4.244   0.539   5.236
  275W        W 1472   3.775   3.827   1.334
  276W        W 1473   1.353   5.632   0.531
  277W        W 1474   0.524   2.258   3.431
  278W        W 1475   2.563   2.588   2.961
  279W        W 1476   3.545   7.783   0.149
  280W        W 1477   5.677   6.043   5.750
  281W        W 1478   1.748   1.354   0.943
  282W        W 1479   1.742   1.862   7.722
  283W        W 1480   0.114   5.180   2.143
  284W        W 1481   6.784   5.617   3.362
  285W        W 1482   0.792   5.281   1.646
  286W        W 1483   0.422   5.714   0.978
  287W        W 1484   2.350   4.732   5.471
  288W        W 1485   4.647   7.242   4.709
  289W        W 1486   7.841   4.210   2.193
  290W        W 1487   4.992   0.675   6.877
  291W        W 1488   2.805   1.992   3.466
  292W        W 1489   0.535   4.424   3.478
  293W        W 1490   3.150   3.798   1.634
  294W        W 1491   4.588   6.991   0.788
  295W        W 1492   4.848   2.907   0.667
  296W        W 1493   6.939   4.095   0.989
  297W        W 1494   2.481   2.362   6.005
  298W        W 1495   6.224   0.691   6.822
  299W        W 1496   0.632   3.857   7.284
  300W        W 1497   0.524   7.235   5.057
  301W        W 1498   6.416   6.936   7.574
  302W        W 1499   7.141   6.937   4.678
  303W        W 1500   4.635   4.146   6.694
  304W        W 1501   5.425   3.722   2.390
  305W        W 1502   6.697   4.696   3.271
  306W        W 1503   5.016   5.636   1.548
  307W        W 1504   7.176   0.692   0.412
  308W        W 1505   1.617   1.242   2.597
  309W        W 1506   2.148   5.449   2.572
  310W        W 1507   3.105   0.486   4.764
  311W        W 1508   4.110   0.556   3.277
  312W        W 1509   7.241   7.263   5.065
  313W        W 1510   2.191   7.073   3.340
  314W        W 1511   6.899   1.528   7.660
  315W        W 1512   0.805   4.184   0.003
  316W        W 1513   5.704   5.121   3.873
  317W        W 1514   0.520   2.210   6.938
  318W        W 1515   2.932   0.801   0.370
  319W        W 1516   7.000   5.390   5.643
  320W        W 1517   2.837   5.883   7.389
  321W        W 1518   7.173   3.649   0.718
  322W        W 1519   4.889   1.207   6.940
  323W        W 1520   6.705   3.832   0.546
  324W        W 1521   6.985   6.398   1.029
  325W        W 1522   1.004   5.143   2.218
  326W        W 1523   5.003   2.040   3.247
  327W        W 1524   3.324   5.958   2.361
  328W        W 1525   6.530   3.909   6.745
  329W        W 1526   0.997   2.101   5.539
  330W        W 1527   1.283   4.261   2.374
  331W        W 1528   2.328   1.500   4.662
  332W        W 1529   6.342   1.268   6.690
  333W        W 1530   1.301   6.551   2.309
  334W        W 1531   0.777   1.492   0.827
  335W        W 1532   2.547   1.040   6.531
  336W        W 1533   3.382   1.587   2.877
  337W        W 1534   6.076   0.833   5.340
  338W        W 1535   2.768   3.633   7.114
  339W        W 1536   7.273   3.416   1.170
  340W        W 1537   6.681   7.391   7.347
  341W        W 1538   5.999   6.606   7.491
  342W        W 1539   1.627   0.717   2.411
  343W        W 1540   0.098   2.832   0.606
  344W        W 1541   2.497   5.124   1.054
  345W        W 1542   4.981   5.828   7.675
  346W        W 1543   0.994   4.818   1.317
  347W        W 1544   2.646   5.930   6.748
  348W        W 1545   6.496   1.454   1.899
  349W        W 1546   5.963   5.419   1.042
  350W        W 1547   4.818   5.202   6.966
  351W        W 1548   5.537   3.717   0.458
  352W        W 1549   4.323   2.836   0.552
  353W        W 1550   4.573   1.429   2.257
  354W        W 1551   7.326   2.967   4.964
  355W        W 1552   4.214   5.143   5.601
  356W        W 1553   4.337   3.721   2.079
  357W        W 1554   2.805   0.133   5.663
  358W        W 1555   6.462   2.244   2.499
  359W        W 1556   2.413   5.702   5.113
  360W        W 1557   2.356   4.649   0.183
  361W        W 1558   2.193   3.020   0.659
  362W        W 1559   3.073   3.541   4.860
  363W        W 1560   7.972   4.131   5.298
  364W        W 1561   6.039   6.093   7.368
  365W        W 1562   7.456   5.787   1.422
  366W        W 1563   5.119   3.721   2.772
  367W        W 1564   7.500   3.732   7.005
  368W        W 1565   4.362   4.703   3.421
  369W        W 1566   4.862   0.087   1.302
  370W        W 1567   1.016   1.658   3.062
  371W        W 1568   4.367   0.630   6.638
  372W        W 1569   0.573   6.303   0.535
  373W        W 1570   1.921   5.198   1.019
  374W        W 1571   0.523   0.084   2.524
  375W        W 1572   7.573   0.969   0.532
  376W        W 1573   5.668   7.368   6.679
  377W        W 1574   0.892   2.859   2.310
  378W        W 1575   1.603   4.785   3.774
  379W        W 1576   7.206   6.744   0.661
  380W        W 1577   3.928   5.259   4.369
  381W        W 1578   6.934   1.523   1.598
  382W        W 1579   6.265   3.953   2.164
  383W        W 1580   3.423   1.148   3.498
  384W        W 1581   0.241   3.307   1.316
  385W        W 1582   0.183   1.030   1.247
  386W        W 1583   0.825   0.474   5.265
  387W        W 1584   5.192   6.883   7.365
  388W        W 1585   5.184   4.770   1.939
  389W        W 1586   1.362   4.615   3.381
  390W        W 1587   5.576   7.464   1.775
  391W        W 1588   1.752   2.802   3.190
  392W        W 1589   0.058   2.030   4.773
  393W        W 1590   2.681   4.176   7.386
  394W        W 1591   0.707   7.542   3.167
  395W        W 1592   6.379   5.864   6.323
  396W        W 1593   1.168   3.771   4.365
  397W        W 1594   2.601   7.345   6.069
  398W        W 1595   0.563   6.180   0.034
  399W        W 1596   3.021   6.917   3.273
  400W        W 1597   2.204   3.416   0.101
  401W        W 1598   6.666   3.551   7.171
  402W        W 1599   4.694   0.868   1.349
  403W        W 1600   6.228   2.115   7.354
  404W        W 1601   0.166   5.804   4.064
  405W        W 1602   2.339   0.609   0.742
  406W        W 1603   3.541   1.808   0.365
  407W        W 1604   6.492   5.083   5.554
  408W        W 1605   0.928   1.731   3.962
  409W        W 1606   2.513   1.885   7.289
  410W        W 1607   0.595   3.849   4.288
  411W        W 1608   6.042   1.134   3.217
  412W        W 1609   4.477   3.244   7.145
  413W        W 1610   0.566   6.664   5.754
  414W        W 1611   3.374   6.613   3.132
  415W        W 1612   7.344   7.811   6.781
  416W        W 1613   7.213   1.344   6.940
  417W        W 1614   0.737   2.109   1.248
  418W        W 1615   6.718   4.841   6.852
  419W        W 1616   4.272   7.015   3.315
  420W        W 1617   1.687   4.864   5.992
  421W        W 1618   5.310   2.779   5.362
  422W        W 1619   2.167   5.026   7.731
  423W        W 1620   6.254   6.507   4.976
  424W        W 1621   0.761   1.889   0.418
  425W        W 1622   2.568   3.468   6.353
  426W        W 1623   7.669   4.637   0.673
  427W        W 1624   6.150   4.390   4.087
  428W        W 1625   4.450   6.418   4.240
  429W        W 1626   4.368   6.712   2.046
  430W        W 1627   4.959   3.917   5.607
  431W        W 1628   6.680   1.515   3.000
  432W        W 1629   0.909   0.784   7.552
  433W        W 1630   3.135   4.586   7.784
  434W        W 1631   5.608   4.952   0.798
  435W        W 1632   2.707   0.257   1.550
  436W        W 1633   7.276   2.491   0.280
  437W        W 1634   1.401   0.343   7.024
  438W        W 1635   5.050   7.122   0.900
  439W        W 1636   1.652   5.783   5.755
  440W        W 1637   3.212   4.240   6.956
  441W        W 1638   6.014   3.418   5.597
  442W        W 1639   5.090   3.496   3.901
  443W        W 1640   2.204   1.607   1.031
  444W        W 1641   7.671   3.454   3.286
  445W        W 1642   0.360   0.848   7.618
  446W        W 1643   3.274   1.647   2.093
  447W        W 1644   1.492   2.380   7.774
  448W        W 1645   6.665   6.398   5.403
  449W        W 1646   4.297   1.466   3.131
  450W        W 1647   6.904   5.757   2.450
  451W        W 1648   3.069   3.815   3.953
  452W        W 1649   0.201   7.539   6.349
  453W        W 1650   1.523   3.008   5.442
  454W        W 1651   6.652   7.714   3.202
  455W        W 1652   7.092   2.642   5.770
  456W        W 1653   2.646   2.891   3.764
  457W        W 1654   2.531   3.557   4.853
  458W        W 1655   6.769   2.803   5.426
  459W        W 1656   1.299   3.182   0.545
  460W        W 1657   1.273   1.200   2.197
  461W        W 1658   7.431   1.580   4.839
  462W        W 1659   0.548   4.539   4.546
  463W        W 1660   0.391   3.199   3.101
  464W        W 1661   4.249   7.158   6.207
  465W        W 1662   4.071   4.230   5.690
  466W        W 1663   3.950   2.589   7.550
  467W        W 1664   1.247   5.733   2.433
  468W        W 1665   2.995   7.596   5.450
  469W        W 1666   4.314   4.547   4.889
  470W        W 1667   6.508   7.541   1.735
  471W        W 1668   4.688   3.956   2.447
  472W        W 1669   6.934   7.511   5.920
  473W        W 1670   5.246   2.577   1.201
  474W        W 1671   0.639   4.149   1.266
  475W        W 1672   7.077   6.869   0.119
  476W        W 1673   6.566   3.867   3.310
  477W        W 1674   2.219   2.691   5.617
  478W        W 1675   1.810   1.959   3.307
  479W        W 1676   2.555   5.326   7.457
  480W        W 1677   2.006   2.279   5.823
  481W        W 1678   5.703   3.147   5.174
  482W        W 1679   5.744   1.778   2.600
  483W        W 1680   6.534   2.133   3.736
  484W        W 1681   2.697   7.460   4.056
  485W        W 1682   4.633   0.642   4.197
  486W        W 1683   3.496   3.235   4.749
  487W        W 1684   0.177   6.841   5.469
  488W        W 1685   0.100   5.858   0.041
  489W        W 1686   7.425   1.891   3.543
  490W        W 1687   3.346   3.366   2.062
  491W        W 1688   2.905   0.493   5.326
  492W        W 1689   1.813   1.775   4.665
  493W        W 1690   1.215   4.687   0.844
  494W        W 1691   7.582   0.005   3.042
  495W        W 1692   0.201   3.645   6.965
  496W        W 1693   7.277   4.794   2.733
  497W        W 1694   0.830   1.719   7.354
  498W        W 1695   5.349   4.628   4.057
  499W        W 1696   4.353   3.959   0.011
  500W        W 1697   4.966   2.867   6.984
  501W        W 1698   1.262   3.033   5.054
  502W        W 1699   6.613   7.421   6.380
  503W        W 1700   4.620   3.907   0.719
  504W        W 1701   7.222   7.579   7.508
  505W        W 1702   7.792   6.749   0.286
  506W        W 1703   7.772   0.232   5.642
  507W        W 1704   5.982   5.966   5.055
  508W        W 1705   0.497   0.157   4.251
  509W        W 1706   6.420   7.919   0.320
  510W        W 1707   5.940   6.054   0.239
  511W        W 1708   2.628   3.594   2.729
  512W        W 1709   3.020   1.291   5.221
  513W        W 1710   4.653   2.617   1.232
  514W        W 1711   6.209   0.931   1.592
  515W        W 1712   0.889   5.918   0.791
  516W        W 1713   4.184   0.803   1.556
  517W        W 1714   5.660   4.132   7.602
  518W        W 1715   1.283   4.695   6.268
  519W        W 1716   1.247   6.209   5.510
  520W        W 1717   6.839   5.566   1.290
  521W        W 1718   1.712   6.500   6.804
  522W        W 1719   7.635   5.228   2.470
  523W        W 1720   0.324   3.610   2.813
  524W        W 1721   0.224   3.742   0.793
  525W        W 1722   1.908   6.078   7.028
  526W        W 1723   0.717   3.486   0.585
  527W        W 1724   3.187   0.885   5.582
  528W        W 1725   5.502   3.440   1.015
  529W        W 1726   0.033   4.036   6.689
  530W        W 1727   3.401   7.094   6.261
  531W        W 1728   7.723   6.265   7.387
  532W        W 1729   6.441   5.309   7.423
  533W        W 1730   7.520   2.191   7.253
  534W        W 1731   4.744   5.516   5.387
  535W        W 1732   0.035   2.034   2.958
  536W        W 1733   3.375   4.107   0.903
  537W        W 1734   3.017   5.364   3.640
  538W        W 1735   0.318   4.358   1.668
  539W        W 1736   0.425   4.345   5.912
  540W        W 1737   2.542   1.777   2.588
  541W        W 1738   7.378   5.867   1.885
  542W        W 1739   5.808   0.551   0.559
  543W        W 1740   7.877   2.039   7.607
  544W        W 1741   5.204   3.543   1.426
  545W        W 1742   2.582   7.435   4.585
  546W        W 1743   1.677   2.861   5.916
  547W        W 1744   2.080   0.539   4.640
  548W        W 1745   4.426   0.669   2.879
  549W        W 1746   4.071   2.436   0.616
  550W        W 1747   5.158   5.228   6.585
  551W        W 1748   0.143   0.560   4.410
  552W        W 1749   4.606   5.967   5.119
  553W        W 1750   2.536   0.558   5.816
  554W        W 1751   7.991   5.633   6.639
  555W        W 1752   3.832   7.376   0.280
  556W        W 1753   0.286   5.890   4.577
  557W        W 1754   2.289   0.991   6.095
  558W        W 1755   2.265   7.063   5.248
  559W        W 1756   7.324   0.298   1.252
  560W        W 1757   1.774   5.224   7.423
  561W        W 1758   4.993   5.267   2.821
  562W        W 1759   7.259   2.940   1.332
  563W        W 1760   1.792   4.490   5.249
  564W        W 1761   3.396   7.434   1.537
  565W        W 1762   4.232   3.931   7.043
  566W        W 1763   1.236   7.565   4.667
  567W        W 1764   3.495   4.730   6.042
  568W        W 1765   5.740   1.246   1.262
  569W        W 1766   3.007   1.081   6.393
  570W        W 1767   6.796   4.395   4.888
  571W        W 1768   3.604   3.499   6.074
  572W        W 1769   5.221   1.061   6.166
  573W        W 1770   4.930   6.797   1.256
  574W        W 1771   2.289   3.106   4.016
  575W        W 1772   5.397   7.156   7.021
  576W        W 1773   1.348   2.195   4.747
  577W        W 1774   5.230   6.346   6.416
  578W        W 1775   7.176   0.904   7.736
  579W        W 1776   6.100   1.214   7.252
  580W        W 1777   6.460   0.201   5.175
  581W        W 1778   4.819   3.146   4.692
  582W        W 1779   7.781   7.076   4.202
  583W        W 1780   5.101   1.691   1.163
  584W        W 1781   6.922   4.502   4.361
  585W        W 1782   2.383   7.524   6.951
  586W        W 1783   3.158   2.409   3.475
  587W        W 1784   7.563   0.563   0.850
  588W        W 1785   6.503   3.116   0.416
  589W        W 1786   5.289   4.868   1.395
  590W        W 1787   7.587   4.028   2.743
  591W        W 1788   2.291   0.858   7.014
  592W        W 1789   5.202   0.039   1.816
  593W        W 1790   4.125   0.137   4.980
  594W        W 1791   4.016   0.967   6.795
  595W        W 1792   0.603   5.519   7.381
  596W        W 1793   6.426   3.661   7.654
  597W        W 1794   5.652   1.070   7.518
  598W        W 1795   4.900   5.178   4.854
  599W        W 1796   1.500   7.354   5.865
  600W        W 1797   3.738   3.949   6.893
  601W        W 1798   1.396   5.128   1.171
  602W        W 1799   5.814   6.463   4.070
  603W        W 1800   6.426   6.802   4.629
  604W        W 1801   7.084   0.246   7.757
  605W        W 1802   7.535   3.451   6.572
  606W        W 1803   5.476   5.506   3.062
  607W        W 1804   2.863   3.651   4.411
  608W        W 1805   3.124   4.803   5.673
  609W        W 1806   7.743   2.535   6.986
  610W        W 1807   3.772   5.184   5.908
  611W        W 1808   7.319   0.592   3.824
  612W        W 1809   0.942   3.312   3.162
  613W        W 1810   0.700   2.625   7.709
  614W        W 1811   2.483   6.525   4.522
  615W        W 1812   6.666   1.431   7.086
  616W        W 1813   4.791   5.033   4.367
  617W        W 1814   7.727   7.693   5.756
  618W        W 1815   6.520   5.539   5.383
  619W        W 1816   3.053   0.148   6.574
  620W        W 1817   3.165   0.879   0.806
  621W        W 1818   7.142   7.191   3.641
  622W        W 1819   5.643   4.973   1.712
  623W        W 1820   3.634   0.799   1.537
  624W        W 1821   3.739   6.172   4.685
  625W        W 1822   2.692   1.409   4.344
  626W        W 1823   7.646   0.601   5.030
  627W        W 1824   0.747   7.548   4.601
  628W        W 1825   7.994   6.359   3.127
  629W        W 1826   1.802   3.796   0.068
  630W        W 1827   4.654   7.471   0.948
  631W        W 1828   3.264   6.732   4.230
  632W        W 1829   5.444   5.721   6.519
  633W        W 1830   7.017   4.256   1.494
  634W        W 1831   6.891   6.336   5.858
  635W        W 1832   5.465   1.586   6.276
  636W        W 1833   1.614   5.297   3.790
  637W        W 1834   1.659   3.056   1.384
  638W        W 1835   1.016   3.415   6.237
  639W        W 1836   5.187   5.137   2.376
  640W        W 1837   4.676   2.608   2.394
  641W        W 1838   1.525   2.450   0.197
  642W        W 1839   7.895   6.664   1.385
  643W        W 1840   4.583   7.146   2.891
  644W        W 1841   4.845   3.903   4.494
  645W        W 1842   3.044   4.869   6.206
  646W        W 1843   4.333   6.850   4.869
  647W        W 1844   2.900   5.411   5.076
  648W        W 1845   3.065   2.670   2.662
  649W        W 1846   3.117   0.315   2.395
  650W        W 1847   6.485   0.695   2.439
  651W        W 1848   2.286   5.863   6.341
  652W        W 1849   3.708   0.846   7.169
  653W        W 1850   5.315   1.012   2.156
  654W        W 1851   4.418   4.685   2.333
  655W        W 1852   5.465   5.844   3.535
  656W        W 1853   3.570   2.692   4.939
  657W        W 1854   3.117   3.245   0.875
  658W        W 1855   7.441   2.521   4.771
  659W        W 1856   5.560   3.464   4.792
  660W        W 1857   3.114   6.425   0.093
  661W        W 1858   4.183   0.432   5.722
  662W        W 1859   3.636   4.251   6.241
  663W        W 1860   7.052   4.064   4.338
  664W        W 1861   0.063   3.334   1.877
  665W        W 1862   4.492   2.315   5.164
  666W        W 1863   2.929   3.730   6.663
  667W        W 1864   6.545   0.630   1.750
  668W        W 1865   3.666   1.042   2.376
  669W        W 1866   4.892   0.678   3.118
  670W        W 1867   5.543   6.725   3.066
  671W        W 1868   4.428   4.893   7.861
  672W        W 1869   0.894   5.629   7.825
  673W        W 1870   7.084   3.028   2.700
  674W        W 1871   5.021   6.502   4.099
  675W        W 1872   7.200   6.199   0.631
  676W        W 1873   7.508   3.429   0.331
  677W        W 1874   7.863   0.510   3.663
  678W        W 1875   0.355   1.834   0.726
  679W        W 1876   3.006   4.287   2.349
  680W        W 1877   7.125   2.817   3.551
  681W        W 1878   6.192   5.055   6.704
  682W        W 1879   0.096   5.650   2.097
  683W        W 1880   5.053   5.760   2.776
  684W        W 1881   4.905   1.783   2.274
  685W        W 1882   2.920   7.448   6.800
  686W        W 1883   0.045   5.409   0.230
  687W        W 1884   3.246   0.574   7.868
  688W        W 1885   6.209   6.210   5.412
  689W        W 1886   0.915   3.151   0.918
  690W        W 1887   3.496   1.107   2.959
  691W        W 1888   1.212   3.620   1.771
  692W        W 1889   1.071   5.493   0.947
  693W        W 1890   0.202   1.289   7.218
  694W        W 1891   6.261   0.329   0.226
  695W        W 1892   7.595   7.058   4.752
  696W        W 1893   5.221   7.081   1.783
  697W        W 1894   4.346   7.524   2.685
  698W        W 1895   2.680   2.372   6.812
  699W        W 1896   0.272   4.236   0.905
  700W        W 1897   5.840   5.692   4.668
  701W        W 1898   2.766   1.303   5.679
  702W        W 1899   6.359   6.594   1.848
  703W        W 1900   4.265   1.979   4.152
  704W        W 1901   0.352   0.725   0.326
  705W        W 1902   5.441   5.763   1.841
  706W        W 1903   0.531   2.365   5.632
  707W        W 1904   2.954   1.700   1.674
  708W        W 1905   7.621   3.237   5.727
  709W        W 1906   0.649   2.401   2.353
  710W        W 1907   5.750   2.488   7.144
  711W        W 1908   3.599   7.066   1.749
  712W        W 1909   6.342   3.027   5.733
  713W        W 1910   4.090   4.384   7.175
  714W        W 1911   5.545   4.090   2.682
  715W        W 1912   2.264   5.237   2.081
  716W        W 1913   5.913   7.713   4.093
  717W        W 1914   3.245   6.402   1.144
  718W        W 1915   5.110   0.302   7.294
  719W        W 1916   4.040   7.897   1.758
  720W        W 1917   5.233   2.606   3.191
  721W        W 1918   5.567   7.716   0.647
  722W        W 1919   3.390   3.753   2.940
  723W        W 1920   0.812   1.401   2.087
  724W        W 1921   3.202   6.231   7.403
  725W        W 1922   1.421   1.412   3.028
  726W        W 1923   7.420   1.326   1.427
  727W        W 1924   2.017   4.018   0.446
  728W        W 1925   2.558   2.666   6.394
  729W        W 1926   4.214   0.131   6.769
  730W        W 1927   7.651   2.160   5.691
  731W        W 1928   7.147   2.379   4.286
  732W        W 1929   3.022   1.017   1.382
  733W        W 1930   2.562   1.742   0.562
  734W        W 1931   3.171   7.858   5.933
  735W        W 1932   5.918   1.346   4.481
  736W        W 1933   7.354   5.835   6.709
  737W        W 1934   1.022   7.298   5.068
  738W        W 1935   4.056   4.719   5.852
  739W        W 1936   3.569   7.764   1.852
  740W        W 1937   3.141   5.918   4.320
  741W        W 1938   1.164   5.531   1.461
  742W        W 1939   1.054   6.590   4.219
  743W        W 1940   5.900   4.482   7.822
  744W        W 1941   2.393   6.021   7.142
  745W        W 1942   3.662   1.541   5.473
  746W        W 1943   3.203   4.382   3.852
  747W        W 1944   3.175   1.203   2.536
  748W        W 1945   4.765   0.817   1.985
  749W        W 1946   0.138   4.991   3.804
  750W        W 1947   6.678   2.203   6.575
  751W        W 1948   7.080   0.317   2.566
  752W        W 1949   7.047   0.066   2.996
  753W        W 1950   1.420   6.824   7.049
  754W        W 1951   2.137   6.064   3.184
  755W        W 1952   5.599   1.795   1.442
  756W        W 1953   1.079   1.219   7.341
  757W        W 1954   6.324   7.800   5.275
  758W        W 1955   3.814   6.348   3.067
  759W        W 1956   3.896   0.582   2.569
  760W        W 1957   7.838   7.938   6.760
  761W        W 1958   5.724   3.797   7.221
  762W        W 1959   4.748   0.991   5.906
  763W        W 1960   6.550   6.219   6.919
  764W        W 1961   4.141   2.484   1.491
  765W        W 1962   4.366   4.879   1.892
  766W        W 1963   3.890   4.464   5.227
  767W        W 1964   4.322   4.220   2.198
  768W        W 1965   6.681   0.257   1.311
  769W        W 1966   6.360   0.096   6.675
  770W        W 1967   5.137   0.074   6.827
  771W        W 1968   7.127   1.857   4.383
  772W        W 1969   1.201   2.145   0.449
  773W        W 1970   6.194   7.259   6.684
  774W        W 1971   5.710   6.609   4.849
  775W        W 1972   3.286   6.929   2.196
  776W        W 1973   7.891   6.294   0.069
  777W        W 1974   1.462   2.385   3.446
  778W        W 1975   6.538   2.591   5.035
  779W        W 1976   6.993   6.038   1.494
  780W        W 1977   6.291   2.003   5.622
  781W        W 1978   6.843   6.613   4.968
  782W        W 1979   1.628   5.686   7.034
  783W        W 1980   0.372   5.154   0.568
  784W        W 1981   1.536   1.917   5.082
  785W        W 1982   7.188   6.624   5.549
  786W        W 1983   2.750   7.132   5.512
  787W        W 1984   1.472   4.161   3.223
  788W        W 1985   3.574   6.717   1.410
  789W        W 1986   5.807   3.849   2.025
  790W        W 1987   4.042   6.809   2.948
  791W        W 1988   2.298   5.809   2.189
  792W        W 1989   6.593   6.010   1.145
  793W        W 1990   3.303   7.064   4.739
  794W        W 1991   5.584   4.019   1.010
  795W        W 1992   7.298   7.951   2.552
  796W        W 1993   7.551   2.447   6.509
  797W        W 1994   4.137   1.128   2.129
  798W        W 1995   2.771   3.120   1.212
  799W        W 1996   7.193   3.845   6.617
  800W        W 1997   3.496   1.347   0.700
  801W        W 1998   4.900   1.727   0.701
  802W        W 1999   4.010   1.473   0.865
  803W        W 2000   3.907   1.399   6.185
  804W        W 2001   6.760   3.430   2.768
  805W        W 2002   2.220   5.611   5.922
  806W        W 2003   5.565   4.482   1.544
  807W        W 2004   0.017   2.878   5.815
  808W        W 2005   4.875   6.902   5.078
  809W        W 2006   0.603   3.088   3.538
  810W        W 2007   2.782   0.548   7.621
  811W        W 2008   0.824   2.973   4.029
  812W        W 2009   3.367   0.318   5.128
  813W        W 2010   2.473   6.320   6.284
  814W        W 2011   2.635   3.243   6.778
  815W        W 2012   2.664   7.910   6.859
  816W        W 2013   7.209   0.112   5.633
  817W        W 2014   5.711   6.140   6.348
  818W        W 2015   6.674   2.198   4.234
  819W        W 2016   1.766   4.509   2.203
  820W        W 2017   1.742   2.104   3.805
  821W        W 2018   3.532   5.255   7.353
  822W        W 2019   6.076   2.859   0.746
  823W        W 2020   6.226   3.159   6.787
  824W        W 2021   6.840   2.037   1.491
  825W        W 2022   4.746   7.648   6.686
  826W        W 2023   6.275   7.544   1.196
  827W        W 2024   1.311   2.704   1.901
  828W        W 2025   5.397   2.054   0.944
  829W        W 2026   6.285   2.643   0.354
  830W        W 2027   3.694   0.903   0.452
  831W        W 2028   1.893   0.839   0.304
  832W        W 2029   0.295   2.665   3.303
  833W        W 2030   5.081   3.448   5.746
  834W        W 2031   7.060   2.886   2.249
  835W        W 2032   7.262   3.375   4.721
  836W        W 2033   1.218   0.494   3.184
  837W        W 2034   2.027   1.006   3.859
  838W        W 2035   3.078   3.706   0.687
  839W        W 2036   5.653   2.313   7.951
  840W        W 2037   0.735   2.826   3.144
  841W        W 2038   1.304   4.926   7.471
  842W        W 2039   4.825   4.081   6.240
  843W        W 2040   5.556   0.551   6.714
  844W        W 2041   6.728   3.740   2.280
  845W        W 2042   0.496   5.291   6.603
  846W        W 2043   3.944   7.955   0.814
  847W        W 2044   0.546   3.519   6.411
  848W        W 2045   2.529   7.416   0.197
  849W        W 2046   7.105   6.582   2.538
  850W        W 2047   3.681   1.747   6.533
  851W        W 2048   5.293   4.796   6.354
  852W        W 2049   0.915   3.159   7.669
  853W        W 2050   1.332   0.205   1.773
  854W        W 2051   4.667   0.544   5.546
  855W        W 2052   5.235   5.420   5.229
  856W        W 2053   5.441   2.297   0.320
  857W        W 2054   7.313   0.298   1.797
  858W        W 2055   0.001   1.151   2.642
  859W        W 2056   6.472   4.314   2.496
  860W        W 2057   3.087   7.268   4.331
  861W        W 2058   2.723   7.498   7.370
  862W        W 2059   1.157   0.291   0.019
  863W        W 2060   0.068   3.400   6.557
  864W        W 2061   2.906   7.091   6.429
  865W        W 2062   3.296   3.517   5.610
  866W        W 2063   4.511   5.557   4.874
  867W        W 2064   5.860   4.474   0.835
  868W        W 2065   3.140   5.477   4.628
  869W        W 2066   6.893   6.693   6.422
  870W        W 2067   4.391   2.575   3.360
  871W        W 2068   2.906   6.379   4.289
  872W        W 2069   2.871   6.934   7.424
  873W        W 2070   0.478   0.095   5.483
  874W        W 2071   3.712   2.699   1.305
  875W        W 2072   4.092   2.239   3.547
  876W        W 2073   1.500   0.397   0.922
  877W        W 2074   6.536   7.195   0.908
  878W        W 2075   5.036   3.241   1.043
  879W        W 2076   7.846   6.979   6.494
  880W        W 2077   4.943   4.920   7.811
  881W        W 2078   2.943   6.998   3.799
  882W        W 2079   6.608   1.653   0.232
  883W        W 2080   0.515   7.604   2.725
  884W        W 2081   6.428   6.822   5.303
  885W        W 2082   5.360   4.774   6.942
  886W        W 2083   6.941   6.530   3.030
  887W        W 2084   5.805   4.177   6.037
  888W        W 2085   7.004   1.155   1.234
  889W        W 2086   0.388   3.811   5.758
  890W        W 2087   4.005   3.468   7.190
  891W        W 2088   6.670   0.107   7.514
  892W        W 2089   5.202   7.213   4.833
  893W        W 2090   0.297   4.506   5.010
  894W        W 2091   0.271   4.677   5.534
  895W        W 2092   4.491   2.303   7.446
  896W        W 2093   2.726   5.544   0.325
  897W        W 2094   3.337   2.878   3.083
  898W        W 2095   3.582   0.331   2.203
  899W        W 2096   6.898   1.536   4.724
  900W        W 2097   5.851   5.987   3.251
  901W        W 2098   6.844   3.175   3.995
  902W        W 2099   5.552   1.919   4.293
  903W        W 2100   7.590   5.210   7.218
  904W        W 2101   3.918   3.500   2.945
  905W        W 2102   6.334   2.871   1.214
  906W        W 2103   7.759   4.400   7.436
  907W        W 2104   1.164   0.380   1.302
  908W        W 2105   7.012   3.763   1.423
  909W        W 2106   2.536   2.445   3.485
  910W        W 2107   1.085   2.146   3.233
  911W        W 2108   6.972   6.161   3.542
  912W        W 2109   0.454   3.077   0.898
  913W        W 2110   4.396   0.151   0.998
  914W        W 2111   3.757   0.708   5.103
  915W        W 2112   4.030   5.915   7.447
  916W        W 2113   5.179   7.568   1.086
  917W        W 2114   7.319   5.022   0.938
  918W        W 2115   6.514   6.061   2.216
  919W        W 2116   3.070   4.476   4.871
  920W        W 2117   3.013   2.894   6.527
  921W        W 2118   0.221   2.667   1.105
  922W        W 2119   5.527   2.920   0.879
  923W        W 2120   7.000   1.626   3.893
  924W        W 2121   6.018   0.832   1.040
  925W        W 2122   3.547   2.545   2.758
  926W        W 2123   1.077   0.354   4.798
  927W        W 2124   2.600   5.145   3.858
  928W        W 2125   5.689   2.920   2.350
  929W        W 2126   2.504   2.739   0.926
  930W        W 2127   2.973   3.959   2.779
  931W        W 2128   7.246   1.188   5.668
  932W        W 2129   5.555   0.154   7.125
  933W        W 2130   0.784   5.443   0.582
  934W        W 2131   4.456   7.403   5.796
  935W        W 2132   3.083   2.675   4.172
  936W        W 2133   2.269   6.175   1.319
  937W        W 2134   0.625   5.859   1.817
  938W        W 2135   4.490   2.764   5.433
  939W        W 2136   1.819   5.613   0.564
  940W        W 2137   0.003   4.041   0.383
  941W        W 2138   2.220   4.757   6.135
  942W        W 2139   6.730   3.597   1.028
  943W        W 2140   7.406   6.131   6.248
  944W        W 2141   7.332   7.423   1.373
  945W        W 2142   4.591   4.252   3.345
  946W        W 2143   4.236   3.011   7.500
  947W        W 2144   1.180   6.272   4.569
  948W        W 2145   6.335   6.960   4.023
  949W        W 2146   3.501   0.218   0.224
  950W        W 2147   3.316   5.053   5.264
  951W        W 2148   7.113   1.939   1.921
  952W        W 2149   7.415   4.354   2.392
  953W        W 2150   2.056   1.011   2.319
  954W        W 2151   6.751   7.606   6.813
  955W        W 2152   3.062   5.826   2.898
  956W        W 2153   6.567   3.433   6.491
  957W        W 2154   4.902   7.280   1.376
  958W        W 2155   1.908   5.662   4.953
  959W        W 2156   4.303   6.390   2.982
  960W        W 2157   5.422   4.965   0.270
  961W        W 2158   6.280   6.292   7.885
  962W        W 2159   0.941   6.014   0.318
  963W        W 2160   6.389   7.684   2.789
  964W        W 2161   0.843   4.714   3.298
  965W        W 2162   5.108   6.126   4.576
  966W        W 2163   5.444   2.473   2.541
  967W        W 2164   2.799   3.654   3.432
  968W        W 2165   3.530   7.966   7.123
  969W        W 2166   6.268   4.709   2.901
  970W        W 2167   5.641   5.643   3.982
  971W        W 2168   7.776   5.874   7.021
  972W        W 2169   6.335   5.614   1.370
  973W        W 2170   0.195   1.231   0.158
  974W        W 2171   0.354   7.844   6.757
  975W        W 2172   7.476   2.066   4.116
  976W        W 2173   3.928   6.100   6.005
  977W        W 2174   1.569   5.996   5.173
  978W        W 2175   4.949   4.583   3.597
  979W        W 2176   3.142   6.756   5.561
  980W        W 2177   1.693   3.645   5.545
  981W        W 2178   1.664   3.058   4.620
  982W        W 2179   6.564   2.752   0.738
  983W        W 2180   4.830   4.724   1.087
  984W        W 2181   5.833   5.746   1.482
  985W        W 2182   7.628   3.244   1.543
  986W        W 2183   2.215   3.016   6.558
  987W        W 2184   6.436   0.366   3.845
  988W        W 2185   7.726   2.999   7.922
  989W        W 2186   6.981   4.385   5.350
  990W        W 2187   1.697   7.012   2.333
  991W        W 2188   2.699   4.150   4.825
  992W        W 2189   0.296   1.363   4.181
  993W        W 2190   0.897   3.350   1.464
  994W        W 2191   3.724   1.509   3.200
  995W        W 2192   7.034   5.787   3.834
  996W        W 2193   3.507   3.142   5.294
  997W        W 2194   5.145   6.054   6.881
  998W        W 2195   3.004   0.352   0.136
  999W        W 2196   5.241   3.473   4.395
 1000W        W 2197   4.364   0.457   7.512
 1001W        W 2198   0.452   4.205   7.641
 1002W        W 2199   5.168   0.548   2.339
 1003W        W 2200   4.476   0.410   1.428
 1004W        W 2201   2.368   6.709   7.733
 1005W        W 2202   5.465   5.845   0.242
 1006W        W 2203   3.378   4.676   0.238
 1007W        W 2204   3.341   5.214   1.690
 1008W        W 2205   4.562   1.263   0.791
 1009W        W 2206   1.465   6.290   7.881
 1010W        W 2207   2.826   6.337   7.059
 1011W        W 2208   0.909   2.548   5.958
 1012W        W 2209   2.804   7.722   6.385
 1013W        W 2210   1.821   0.355   0.484
 1014W        W 2211   0.775   7.207   6.385
 1015W        W 2212   1.403   1.589   1.921
 1016W        W 2213   1.342   1.666   2.598
 1017W        W 2214   6.060   1.427   2.206
 1018W        W 2215   5.338   1.827   0.456
 1019W        W 2216   2.874   4.892   1.459
 1020W        W 2217   1.834   0.195   2.522
 1021W        W 2218   6.239   7.300   5.351
 1022W        W 2219   4.969   4.629   2.548
 1023W        W 2220   0.777   3.832   3.508
 1024W        W 2221   5.149   6.670   6.909
 1025W        W 2222   6.085   1.512   6.300
 1026W        W 2223   7.465   2.577   3.265
 1027W        W 2224   6.087   1.336   3.709
 1028W        W 2225   6.067   3.769   3.175
 1029W        W 2226   0.242   4.853   3.310
 1030W        W 2227   3.665   3.092   5.783
 1031W        W 2228   5.309   6.489   1.442
 1032W        W 2229   3.938   1.744   6.996
 1033W        W 2230   0.524   3.550   3.870
 1034W        W 2231   0.786   3.743   2.892
 1035W        W 2232   1.681   4.256   4.748
 1036W        W 2233   0.938   1.418   6.009
 1037W        W 2234   5.440   4.797   3.544
 1038W        W 2235   4.939   7.991   5.248
 1039W        W 2236   1.130   4.601   0.022
 1040W        W 2237   4.667   0.450   5.005
 1041W        W 2238   0.559   1.736   5.308
 1042W        W 2239   1.912   7.623   0.138
 1043W        W 2240   5.143   1.691   1.760
 1044W        W 2241   6.608   3.807   1.743
 1045W        W 2242   0.386   0.180   0.625
 1046W        W 2243   4.866   2.164   0.978
 1047W        W 2244   7.818   0.030   0.051
 1048W        W 2245   1.303   5.078   1.776
 1049W        W 2246   0.217   5.175   1.127
 1050W        W 2247   3.241   7.779   2.356
 1051W        W 2248   6.462   0.782   4.379
 1052W        W 2249   1.353   3.223   6.577
 1053W        W 2250   2.632   3.609   0.299
 1054W        W 2251   0.016   0.103   4.674
 1055W        W 2252   0.791   3.735   5.499
 1056W        W 2253   1.278   1.701   4.585
 1057W        W 2254   4.359   1.204   1.277
 1058W        W 2255   7.471   0.804   3.433
 1059W        W 2256   0.007   7.473   7.485
 1060W        W 2257   0.304   6.595   0.094
 1061W        W 2258   6.980   3.724   5.751
 1062W        W 2259   7.267   0.286   3.432
 1063W        W 2260   0.667   1.209   3.347
 1064W        W 2261   1.447   1.939   2.961
 1065W        W 2262   3.201   5.503   0.365
 1066W        W 2263   3.084   1.142   1.986
 1067W        W 2264   5.634   6.317   5.254
 1068W        W 2265   0.985   5.964   3.333
 1069W        W 2266   6.228   7.698   3.540
 1070W        W 2267   3.817   0.298   5.391
 1071W        W 2268   2.476   0.913   7.524
 1072W        W 2269   6.121   3.427   7.186
 1073W        W 2270   4.966   3.303   3.037
 1074W        W 2271   7.453   2.320   5.309
 1075W        W 2272   7.640   7.552   7.172
 1076W        W 2273   2.261   0.455   0.278
 1077W        W 2274   0.618   6.358   1.648
 1078W        W 2275   5.950   2.835   4.406
 1079W        W 2276   3.496   0.941   7.629
 1080W        W 2277   3.541   0.154   2.723
 1081W        W 2278   3.276   2.798   1.962
 1082W        W 2279   6.605   4.633   3.981
 1083W        W 2280   2.097   5.571   7.236
 1084W        W 2281   3.938   4.747   0.571
 1085W        W 2282   3.676   6.414   3.541
 1086W        W 2283   0.629   1.559   1.554
 1087W        W 2284   6.580   2.519   7.484
 1088W        W 2285   1.672   7.002   0.107
 1089W        W 2286   6.582   2.142   0.206
 1090W        W 2287   3.323   6.757   7.436
 1091W        W 2288   7.386   2.328   6.003
 1092W        W 2289   4.897   3.388   6.199
 1093W        W 2290   3.152   1.405   6.034
 1094W        W 2291   4.086   7.244   4.600
 1095W        W 2292   7.787   1.222   1.973
 1096W        W 2293   6.495   5.484   0.012
 1097W        W 2294   0.973   2.798   0.005
 1098W        W 2295   2.719   3.061   6.067
 1099W        W 2296   0.311   2.970   6.510
 1100W        W 2297   4.207   2.560   7.067
 1101W        W 2298   3.163   6.994   1.347
 1102W        W 2299   3.157   2.765   4.711
 1103W        W 2300   7.860   4.910   5.399
 1104W        W 2301   7.415   4.168   0.704
 1105W        W 2302   6.256   1.267   4.194
 1106W        W 2303   3.739   5.514   1.710
 1107W        W 2304   3.727   2.511   2.244
 1108W        W 2305   4.923   1.444   5.399
 1109W        W 2306   3.330   4.647   6.497
 1110W        W 2307   2.232   2.089   3.938
 1111W        W 2308   5.287   2.289   7.423
 1112W        W 2309   7.015   5.663   5.231
 1113W        W 2310   5.105   5.474   6.177
 1114W        W 2311   7.078   6.166   5.351
 1115W        W 2312   6.122   1.669   0.272
 1116W        W 2313   0.562   6.696   4.224
 1117W        W 2314   7.264   2.924   4.477
 1118W        W 2315   4.618   4.853   5.774
 1119W        W 2316   5.446   0.715   3.238
 1120W        W 2317   1.736   7.025   0.934
 1121W        W 2318   4.487   5.108   6.605
 1122W        W 2319   3.494   1.117   5.266
 1123W        W 2320   6.668   2.283   5.422
 1124W        W 2321   7.317   2.931   5.472
 1125W        W 2322   3.832   3.164   3.826
 1126W        W 2323   5.900   4.294   2.348
 1127W        W 2324   4.167   7.871   5.845
 1128W        W 2325   0.744   0.647   3.507
 1129W        W 2326   3.500   4.993   3.530
 1130W        W 2327   1.456   6.088   6.783
 1131W        W 2328   0.721   5.777   4.064
 1132W        W 2329   2.224   4.029   1.619
 1133W        W 2330   6.049   4.942   5.816
 1134W        W 2331   4.093   7.270   4.077
 1135W        W 2332   4.486   1.512   3.592
 1136W        W 2333   6.821   2.684   4.519
 1137W        W 2334   7.591   1.988   3.057
 1138W        W 2335   0.176   4.104   4.233
 1139W        W 2336   4.662   3.662   5.389
 1140W        W 2337   3.102   2.998   5.602
 1141W        W 2338   2.564   0.491   4.434
 1142W        W 2339   6.150   4.255   5.563
 1143W        W 2340   2.932   6.778   4.683
 1144W        W 2341   0.834   4.074   5.082
 1145W        W 2342   1.649   2.257   0.717
 1146W        W 2343   3.816   3.033   2.810
 1147W        W 2344   7.100   3.206   5.790
 1148W        W 2345   7.677   5.164   1.867
 1149W        W 2346   0.980   6.467   3.292
 1150W        W 2347   1.498   1.382   4.905
 1151W        W 2348   4.399   2.224   1.137
 1152W        W 2349   1.079   0.800   4.328
 1153W        W 2350   6.991   5.747   0.853
 1154W        W 2351   7.739   5.277   1.321
 1155W        W 2352   5.560   2.026   4.787
 1156W        W 2353   4.503   2.133   5.680
 1157W        W 2354   0.339   7.377   1.948
 1158W        W 2355   0.921   6.228   2.177
 1159W        W 2356   1.817   7.156   7.400
 1160W        W 2357   1.042   6.311   7.583
 1161W        W 2358   4.388   0.124   0.498
 1162W        W 2359   4.201   3.828   2.580
 1163W        W 2360   6.321   3.066   5.216
 1164W        W 2361   7.212   6.156   2.290
 1165W        W 2362   4.420   4.149   5.220
 1166W        W 2363   6.741   2.980   6.628
 1167W        W 2364   2.993   6.432   0.665
 1168W        W 2365   5.777   5.716   7.713
 1169W        W 2366   1.153   2.669   0.473
 1170W        W 2367   6.464   2.630   6.372
 1171W        W 2368   1.910   7.212   0.497
 1172W        W 2369   2.532   6.671   0.820
 1173W        W 2370   4.139   7.036   1.675
 1174W        W 2371   3.777   5.041   3.983
 1175W        W 2372   6.230   5.550   1.949
 1176W        W 2373   1.666   2.182   2.557
 1177W        W 2374   2.492   6.273   2.169
 1178W        W 2375   2.663   7.517   0.802
 1179W        W 2376   3.737   2.660   6.034
 1180W        W 2377   6.420   2.814   4.139
 1181W        W 2378   0.056   0.427   2.832
 1182W        W 2379   1.117   7.647   6.069
 1183W        W 2380   6.219   5.873   6.812
 1184W        W 2381   2.025   3.961   7.673
 1185W        W 2382   2.661   4.839   5.864
 1186W        W 2383   5.243   3.528   3.408
 1187W        W 2384   3.781   0.367   1.725
 1188W        W 2385   4.343   4.692   5.384
 1189W        W 2386   7.508   0.166   2.258
 1190W        W 2387   5.340   6.059   2.541
 1191W        W 2388   4.344   3.901   3.061
 1192W        W 2389   1.347   6.122   2.686
 1193W        W 2390   2.514   3.844   0.708
 1194W        W 2391   2.943   0.783   2.344
 1195W        W 2392   4.079   6.023   4.351
 1196W        W 2393   4.425   1.954   7.083
 1197W        W 2394   3.688   2.512   3.309
 1198W        W 2395   0.591   5.175   3.517
 1199W        W 2396   4.496   2.126   2.183
 1200W        W 2397   4.290   5.304   1.647
 1201W        W 2398   3.663   0.579   3.519
 1202W        W 2399   1.800   6.958   4.553
 1203W        W 2400   6.351   1.034   2.079
 1204W        W 2401   0.347   5.778   5.098
 1205W        W 2402   0.176   3.893   3.716
 1206W        W 2403   2.342   0.988   4.635
 1207W        W 2404   6.373   3.359   3.339
 1208W        W 2405   4.649   1.885   4.478
 1209W        W 2406   6.861   1.993   2.479
 1210W        W 2407   6.455   5.133   2.675
 1211W        W 2408   5.481   0.448   7.577
 1212W        W 2409   4.876   1.732   6.991
 1213W        W 2410   0.850   0.708   2.890
 1214W        W 2411   1.607   3.627   7.575
 1215W        W 2412   4.993   6.619   1.777
 1216W        W 2413   0.447   3.259   0.140
 1217W        W 2414   6.302   6.449   0.468
 1218W        W 2415   2.023   4.775   4.566
 1219W        W 2416   3.927   1.219   1.525
 1220W        W 2417   2.191   5.884   0.891
 1221W        W 2418   2.946   3.010   7.081
 1222W        W 2419   3.607   4.399   5.713
 1223W        W 2420   6.651   4.122   5.875
 1224W        W 2421   3.650   1.181   5.817
 1225W        W 2422   6.839   0.103   0.252
 1226W        W 2423   3.229   2.330   2.286
 1227W        W 2424   1.304   2.260   7.257
 1228W        W 2425   0.355   6.905   2.535
 1229W        W 2426   6.057   2.553   2.331
 1230W        W 2427   6.922   4.117   1.982
 1231W        W 2428   6.060   5.321   2.393
 1232W        W 2429   3.362   7.821   7.687
 1233W        W 2430   6.034   3.740   0.950
 1234W        W 2431   3.728   0.913   6.345
 1235W        W 2432   5.217   4.981   5.881
 1236W        W 2433   5.230   5.305   1.880
 1237W        W 2434   3.032   1.755   2.519
 1238W        W 2435   4.184   5.626   5.296
 1239W        W 2436   2.294   6.490   1.731
 1240W        W 2437   5.000   2.260   2.551
 1241W        W 2438   5.754   4.647   7.351
 1242W        W 2439   4.997   6.915   4.465
 1243W        W 2440   0.936   4.322   6.089
 1244W        W 2441   0.833   7.622   6.778
 1245W        W 2442   4.062   5.318   4.870
 1246W        W 2443   2.040   0.260   5.024
 1247W        W 2444   3.889   6.723   7.542
 1248W        W 2445   1.014   0.208   4.188
 1249W        W 2446   0.862   6.538   0.251
 1250W        W 2447   5.894   7.172   3.957
 1251W        W 2448   1.124   3.015   2.735
 1252W        W 2449   0.300   4.453   6.463
 1253W        W 2450   3.539   4.136   4.956
 1254W        W 2451   1.384   3.156   1.782
 1255W        W 2452   0.285   5.537   3.614
 1256W        W 2453   4.457   7.728   5.363
 1257W        W 2454   5.461   4.541   2.447
 1258W        W 2455   1.550   0.760   5.615
 1259W        W 2456   5.951   7.552   2.617
 1260W        W 2457   4.165   0.077   3.431
 1261W        W 2458   2.686   1.844   5.857
 1262W        W 2459   1.355   0.207   2.311
 1263W        W 2460   4.635   5.394   4.002
 1264W        W 2461   4.323   6.866   3.803
 1265W        W 2462   6.591   2.008   1.994
 1266W        W 2463   2.815   2.610   7.300
 1267W        W 2464   6.963   0.777   3.486
 1268W        W 2465   6.482   3.851   2.716
 1269W        W 2466   5.027   1.383   6.502
 1270W        W 2467   3.985   7.425   0.898
 1271W        W 2468   5.171   7.381   2.880
 1272W        W 2469   0.061   1.487   5.192
 1273W        W 2470   4.114   0.242   2.343
 1274W        W 2471   4.686   0.030   7.445
 1275W        W 2472   2.811   2.637   5.717
 1276W        W 2473   5.301   0.539   0.683
 1277W        W 2474   3.173   1.837   7.517
 1278W        W 2475   0.429   5.027   5.229
 1279W        W 2476   7.601   7.132   5.439
 1280W        W 2477   1.914   4.956   0.181
 1281W        W 2478   5.814   0.605   7.206
 1282W        W 2479   2.414   3.338   3.550
 1283W        W 2480   5.515   3.154   0.293
 1284W        W 2481   5.947   0.852   4.478
 1285W        W 2482   7.451   4.429   0.239
 1286W        W 2483   5.108   5.571   3.873
 1287W        W 2484   7.708   1.714   7.231
 1288W        W 2485   4.952   5.119   0.358
 1289W        W 2486   3.882   7.454   1.443
 1290W        W 2487   4.823   2.843   3.268
 1291W        W 2488   3.943   0.452   6.544
 1292W        W 2489   7.671   4.616   1.903
 1293W        W 2490   4.984   0.197   5.627
 1294W        W 2491   1.266   3.859   5.422
 1295W        W 2492   4.074   1.852   1.220
 1296W        W 2493   2.767   6.856   2.116
 1297W        W 2494   1.776   3.968   1.882
 1298W        W 2495   0.937   6.741   7.292
 1299W        W 2496   3.873   2.918   0.695
 1300W        W 2497   4.633   1.684   6.480
 1301W        W 2498   3.132   5.419   7.093
 1302W        W 2499   5.136   5.654   2.250
 1303W        W 2500   5.669   0.753   6.255
 1304W        W 2501   3.637   6.393   4.251
 1305W        W 2502   2.105   6.729   6.482
 1306W        W 2503   0.188   7.660   5.751
 1307W        W 2504   6.312   6.895   0.582
 1308W        W 2505   6.740   4.741   2.733
 1309W        W 2506   2.082   3.323   4.749
 1310W        W 2507   5.952   6.594   1.539
 1311W        W 2508   1.833   4.741   7.357
 1312W        W 2509   6.362   5.429   3.533
 1313W        W 2510   5.128   4.140   2.311
 1314W        W 2511   3.305   5.931   0.083
 1315W        W 2512   4.899   1.989   5.242
 1316W        W 2513   6.758   2.202   4.719
 1317W        W 2514   5.590   6.386   6.761
 1318W        W 2515   1.693   7.448   6.320
 1319W        W 2516   4.543   5.476   0.451
 1320W        W 2517   1.112   3.647   0.840
 1321W        W 2518   6.331   0.780   2.972
 1322W        W 2519   4.908   4.412   5.364
 1323W        W 2520   7.587   5.823   0.334
 1324W        W 2521   7.290   1.129   3.799
 1325W        W 2522   3.714   2.040   1.465
 1326W        W 2523   7.591   2.620   1.561
 1327W        W 2524   1.116   5.761   4.478
 1328W        W 2525   5.633   5.043   6.633
 1329W        W 2526   7.688   3.141   4.289
 1330W        W 2527   3.902   6.224   5.291
 1331W        W 2528   7.548   7.130   7.445
 1332W        W 2529   4.078   6.811   1.228
 1333W        W 2530   7.388   6.661   7.393
 1334W        W 2531   0.066   4.405   4.621
 1335W        W 2532   0.529   5.970   3.629
 1336W        W 2533   1.082   5.121   3.580
 1337W        W 2534   6.769   6.635   7.704
 1338W        W 2535   0.164   6.131   6.648
 1339W        W 2536   1.351   0.689   0.338
 1340W        W 2537   3.554   3.598   7.563
 1341W        W 2538   0.559   3.992   6.820
 1342W        W 2539   1.324   3.160   2.276
 1343W        W 2540   1.894   1.102   7.970
 1344W        W 2541   2.800   4.596   3.966
 1345W        W 2542   4.534   1.931   3.184
 1346W        W 2543   5.336   6.642   0.219
 1347W        W 2544   5.751   4.630   2.029
 1348W        W 2545   5.462   7.445   5.905
 1349W        W 2546   5.394   7.332   3.924
 1350W        W 2547   1.932   6.657   7.394
 1351W        W 2548   5.947   3.208   1.205
 1352W        W 2549   3.313   3.006   6.108
 1353W        W 2550   7.018   4.293   7.774
 1354W        W 2551   6.251   4.531   2.084
 1355W        W 2552   5.677   0.823   1.485
 1356W        W 2553   0.181   0.313   7.472
 1357W        W 2554   4.061   5.772   6.440
 1358W        W 2555   4.046   2.412   5.076
 1359W        W 2556   7.788   3.530   1.096
 1360W        W 2557   0.514   7.411   3.602
 1361W        W 2558   6.063   2.971   2.700
 1362W        W 2559   3.530   0.381   6.928
 1363W        W 2560   7.183   0.281   0.651
 1364W        W 2561   7.941   6.739   7.309
 1365W        W 2562   5.642   1.206   5.954
 1366W        W 2563   3.708   0.045   6.418
 1367W        W 2564   5.034   1.272   4.762
 1368W        W 2565   0.590   4.329   2.097
 1369W        W 2566   1.725   4.283   6.180
 1370W        W 2567   4.089   2.308   3.037
 1371W        W 2568   3.429   0.065   4.510
 1372W        W 2569   6.949   0.172   3.822
 1373W        W 2570   1.038   3.576   7.433
 1374W        W 2571   2.652   5.645   1.216
 1375W        W 2572   6.126   6.337   3.747
 1376W        W 2573   6.615   3.402   5.975
 1377W        W 2574   2.175   1.295   1.874
 1378W        W 2575   0.093   1.727   6.402
 1379W        W 2576   3.957   7.669   5.072
 1380W        W 2577   1.754   2.981   6.474
 1381W        W 2578   6.848   5.103   3.094
 1382W        W 2579   1.685   1.293   0.421
 1383W        W 2580   3.094   5.313   2.624
 1384W        W 2581   5.257   2.207   6.949
 1385W        W 2582   0.545   6.512   7.548
 1386W        W 2583   1.963   6.059   5.524
 1387W        W 2584   0.439   1.282   2.433
 1388W        W 2585   0.256   3.930   1.979
 1389W        W 2586   0.659   7.191   4.113
 1390W        W 2587   6.040   4.928   4.276
 1391W        W 2588   7.192   2.343   1.678
 1392W        W 2589   0.855   0.673   0.025
 1393W        W 2590   1.077   4.228   4.581
 1394W        W 2591   5.578   0.261   5.410
 1395W        W 2592   6.233   7.846   2.339
 1396W        W 2593   3.342   0.838   6.064
 1397W        W 2594   5.847   3.300   0.705
 1398W        W 2595   1.049   2.854   5.481
 1399W        W 2596   3.880   1.009   3.305
 1400W        W 2597   3.349   0.740   2.617
 1401W        W 2598   5.279   3.992   3.233
 1402W        W 2599   1.204   1.112   5.672
 1403W        W 2600   4.636   3.366   0.664
 1404W        W 2601   5.867   1.910   6.439
 1405W        W 2602   1.757   5.758   2.386
 1406W        W 2603   4.545   0.159   7.952
 1407W        W 2604   2.785   0.380   0.604
 1408W        W 2605   7.453   7.326   6.059
 1409W        W 2606   7.622   7.395   6.668
 1410W        W 2607   4.467   7.370   2.231
 1411W        W 2608   4.576   5.573   6.286
 1412W        W 2609   4.989   5.452   0.756
 1413W        W 2610   4.415   1.467   7.041
 1414W        W 2611   7.622   2.966   7.407
 1415W        W 2612   0.696   0.010   4.939
 1416W        W 2613   2.370   4.307   4.069
 1417W        W 2614   2.765   6.116   0.203
 1418W        W 2615   6.542   2.731   2.102
 1419W        W 2616   5.764   6.814   0.460
 1420W        W 2617   4.776   6.357   6.772
 1421W        W 2618   5.685   5.510   5.672
 1422W        W 2619   6.651   7.169   3.600
 1423W        W 2620   7.032   1.800   7.258
 1424W        W 2621   7.466   0.457   7.432
 1425W        W 2622   1.287   5.443   7.476
 1426W        W 2623   5.107   0.975   1.586
 1427W        W 2624   2.976   2.602   0.038
 1428W        W 2625   6.839   7.828   2.078
 1429W        W 2626   5.096   0.342   3.456
 1430W        W 2627   7.414   3.625   6.082
 1431W        W 2628   7.444   6.258   6.994
 1432W        W 2629   4.291   7.260   5.202
 1433W        W 2630   1.832   1.599   6.802
 1434W        W 2631   1.571   0.159   3.661
 1435W        W 2632   4.369   0.714   2.394
 1436W        W 2633   1.978   2.923   3.614
 1437W        W 2634   4.646   5.944   7.121
 1438W        W 2635   5.632   6.273   0.555
 1439W        W 2636   7.772   5.007   2.868
 1440W        W 2637   0.832   7.449   1.820
 1441W        W 2638   6.322   5.740   3.160
 1442W        W 2639   2.543   3.552   1.080
 1443W        W 2640   7.830   0.337   1.667
 1444W        W 2641   7.209   1.608   1.007
 1445W        W 2642   7.819   2.425   0.823
 1446W        W 2643   7.684   3.770   1.542
 1447W        W 2644   1.791   1.401   2.178
 1448W        W 2645   3.777   5.363   5.362
 1449W        W 2646   0.808   4.842   0.512
 1450W        W 2647   7.396   2.144   2.285
 1451W        W 2648   4.249   5.123   3.707
 1452W        W 2649   6.108   0.476   2.685
 1453W        W 2650   5.061   3.422   7.793
 1454W        W 2651   5.746   0.169   2.180
 1455W        W 2652   6.417   4.384   7.015
 1456W        W 2653   3.487   2.871   3.580
 1457W        W 2654   3.098   0.309   1.107
 1458W        W 2655   5.510   5.288   6.214
 1459W        W 2656   0.645   6.649   2.890
 1460W        W 2657   0.532   6.204   3.129
 1461W        W 2658   2.766   0.317   2.755
 1462W        W 2659   3.502   4.934   4.472
 1463W        W 2660   3.043   0.357   7.017
 1464W        W 2661   3.017   4.769   2.442
 1465W        W 2662   6.702   1.587   1.012
 1466W        W 2663   7.654   7.606   4.340
 1467W        W 2664   4.595   0.268   3.168
 1468W        W 2665   2.018   2.511   2.460
 1469W        W 2666   6.307   0.071   1.782
 1470W        W 2667   5.339   2.579   3.728
 1471W        W 2668   3.428   5.126   6.378
 1472W        W 2669   3.151   2.240   0.425
 1473W        W 2670   2.520   0.357   6.877
 1474W        W 2671   7.254   2.918   6.584
 1475W        W 2672   2.553   1.263   1.173
 1476W        W 2673   0.615   4.878   2.424
 1477W        W 2674   0.527   1.313   7.570
 1478W        W 2675   7.116   5.438   7.039
 1479W        W 2676   7.485   2.874   6.173
 1480W        W 2677   0.213   6.878   1.741
 1481W        W 2678   3.436   4.257   2.072
 1482W        W 2679   7.335   1.510   1.843
 1483W        W 2680   0.624   7.690   4.069
 1484W        W 2681   3.193   1.760   0.687
 1485W        W 2682   3.407   4.553   0.697
 1486W        W 2683   1.650   1.108   1.739
 1487W        W 2684   4.816   2.432   7.080
 1488W        W 2685   0.464   4.182   5.391
 1489W        W 2686   5.085   2.746   4.577
 1490W        W 2687   6.311   1.793   6.945
 1491W        W 2688   7.248   0.490   4.654
 1492W        W 2689   0.710   6.439   5.324
 1493W        W 2690   0.163   4.900   4.767
 1494W        W 2691   1.390   3.206   7.456
 1495W        W 2692   5.150   3.670   7.039
 1496W        W 2693   5.962   7.482   3.126
 1497W        W 2694   7.661   4.491   5.009
 1498W        W 2695   2.531   1.020   2.076
 1499W        W 2696   6.670   2.988   3.101
 1500W        W 2697   3.016   3.384   3.020
 1501W        W 2698   5.513   6.056   4.835
 1502W        W 2699   1.410   4.579   4.291
 1503W        W 2700   0.329   1.328   6.700
 1504W        W 2701   1.992   2.594   6.242
 1505W        W 2702   0.177   2.228   6.485
 1506W        W 2703   4.955   7.737   2.542
 1507W        W 2704   4.453   4.650   6.316
 1508W        W 2705   3.162   2.630   5.248
 1509W        W 2706   5.435   6.421   5.905
 1510W        W 2707   2.795   3.487   5.861
 1511W        W 2708   5.537   4.004   1.517
 1512W        W 2709   1.803   5.346   5.932
 1513W        W 2710   3.276   1.815   5.063
 1514W        W 2711   4.133   0.137   6.210
 1515W        W 2712   1.441   0.409   2.745
 1516W        W 2713   6.397   3.710   5.643
 1517W        W 2714   5.358   4.297   3.635
 1518W        W 2715   7.061   0.525   2.126
 1519W        W 2716   0.576   4.406   7.164
 1520W        W 2717   2.660   5.098   7.919
 1521W        W 2718   1.878   5.033   5.482
 1522W        W 2719   4.438   5.155   5.178
 1523W        W 2720   2.671   1.960   6.346
 1524W        W 2721   1.765   6.611   2.013
 1525W        W 2722   2.391   3.822   4.472
 1526W        W 2723   5.814   5.830   2.740
 1527W        W 2724   0.692   1.024   3.893
 1528W        W 2725   7.767   7.646   2.235
 1529W        W 2726   4.076   4.360   3.129
 1530W        W 2727   3.205   0.791   3.265
 1531W        W 2728   5.526   5.410   6.960
 1532W        W 2729   1.990   2.427   0.388
 1533W        W 2730   2.868   5.553   4.098
 1534W        W 2731   0.980   5.608   5.702
 1535W        W 2732   5.858   2.253   5.700
 1536W        W 2733   0.274   4.709   0.782
 1537W        W 2734   2.467   0.548   1.911
 1538W        W 2735   2.116   7.090   7.854
 1539W        W 2736   2.000   6.580   3.082
 1540W        W 2737   6.531   4.885   2.258
 1541W        W 2738   3.216   3.324   6.769
 1542W        W 2739   2.046   1.167   1.366
 1543W        W 2740   0.776   7.026   3.448
 1544W        W 2741   6.257   0.049   7.804
 1545W        W 2742   2.769   2.332   3.953
 1546W        W 2743   2.647   5.507   6.980
 1547W        W 2744   5.881   5.785   2.260
 1548W        W 2745   2.657   2.848   4.251
 1549W        W 2746   7.808   6.537   3.566
 1550W        W 2747   3.516   7.607   4.272
 1551W        W 2748   3.424   6.925   3.613
 1552W        W 2749   0.483   0.297   6.555
 1553W        W 2750   1.912   1.926   2.155
 1554W        W 2751   4.429   4.711   7.357
 1555W        W 2752   1.396   6.712   7.553
 1556W        W 2753   7.494   1.191   0.984
 1557W        W 2754   3.853   4.818   0.070
 1558W        W 2755   5.033   5.651   0.213
 1559W        W 2756   6.900   2.318   0.600
 1560W        W 2757   0.302   0.807   6.721
 1561W        W 2758   4.177   4.628   3.946
 1562W        W 2759   5.798   2.784   3.902
 1563W        W 2760   4.388   4.202   7.528
 1564W        W 2761   1.875   5.670   2.863
 1565W        W 2762   4.097   2.644   2.627
 1566W        W 2763   3.580   3.200   1.064
 1567W        W 2764   2.526   3.282   7.359
 1568W        W 2765   3.843   0.785   5.595
 1569W        W 2766   7.330   6.644   5.037
 1570W        W 2767   2.521   4.185   0.344
 1571W        W 2768   3.114   6.868   0.871
 1572W        W 2769   1.413   2.944   7.000
 1573W        W 2770   5.574   2.616   4.746
 1574W        W 2771   3.474   0.799   4.361
 1575W        W 2772   0.448   0.638   6.210
 1576W        W 2773   1.566   1.004   6.819
 1577W        W 2774   2.584   5.970   4.201
 1578W        W 2775   7.237   3.157   3.177
 1579W        W 2776   5.261   0.686   1.193
 1580W        W 2777   4.119   2.395   5.632
 1581W        W 2778   5.874   0.817   3.559
 1582W        W 2779   6.299   6.001   5.856
 1583W        W 2780   1.074   0.291   3.689
 1584W        W 2781   6.143   0.541   2.088
 1585W        W 2782   5.531   6.685   1.928
 1586W        W 2783   2.042   2.409   3.534
 1587W        W 2784   2.566   1.447   6.183
 1588W        W 2785   4.419   0.971   7.169
 1589W        W 2786   0.638   0.525   7.210
 1590W        W 2787   2.848   5.053   4.266
 1591W        W 2788   5.473   6.391   4.374
 1592W        W 2789   6.034   5.371   2.947
 1593W        W 2790   7.386   3.899   0.274
 1594W        W 2791   3.674   5.952   4.055
 1595W        W 2792   1.230   7.334   0.843
 1596W        W 2793   1.219   1.645   0.593
 1597W        W 2794   2.223   1.625   6.504
 1598W        W 2795   6.641   4.362   0.719
 1599W        W 2796   3.288   3.889   5.962
 1600W        W 2797   7.706   2.435   2.812
 1601W        W 2798   0.890   2.120   4.923
 1602W        W 2799   2.443   6.161   5.267
 1603W        W 2800   1.811   5.290   6.790
 1604W        W 2801   3.406   2.905   0.505
 1605W        W 2802   7.425   4.879   2.271
 1606W        W 2803   5.567   7.750   2.973
 1607W        W 2804   2.783   3.019   2.816
 1608W        W 2805   6.384   7.461   3.976
 1609W        W 2806   0.612   2.337   0.724
 1610W        W 2807   4.255   5.130   6.119
 1611W        W 2808   6.893   2.676   4.015
 1612W        W 2809   7.152   4.350   2.928
 1613W        W 2810   7.917   1.335   0.567
 1614W        W 2811   2.199   1.995   6.868
 1615W        W 2812   5.467   4.137   5.269
 1616W        W 2813   7.769   0.007   0.609
 1617W        W 2814   4.320   7.270   0.451
 1618W        W 2815   5.418   6.375   7.265
 1619W        W 2816   4.813   4.765   3.028
 1620W        W 2817   2.061   6.437   0.850
 1621W        W 2818   2.863   5.175   5.543
 1622W        W 2819   0.153   2.682   0.156
 1623W        W 2820   2.775   4.943   2.837
 1624W        W 2821   2.021   3.080   1.712
 1625W        W 2822   6.124   0.950   6.361
 1626W        W 2823   7.318   7.049   6.474
 1627W        W 2824   0.326   0.362   5.032
 1628W        W 2825   4.045   6.518   2.556
 1629W        W 2826   3.916   2.169   2.571
 1630W        W 2827   0.726   0.133   1.450
 1631W        W 2828   4.917   4.577   6.107
 1632W        W 2829   5.090   2.202   1.444
 1633W        W 2830   4.726   6.268   3.282
 1634W        W 2831   2.015   3.447   4.292
 1635W        W 2832   0.942   0.045   7.397
 1636W        W 2833   1.862   7.796   7.231
 1637W        W 2834   4.214   6.426   0.818
 1638W        W 2835   0.938   2.908   6.753
 1639W        W 2836   3.070   3.944   5.142
 1640W        W 2837   4.512   0.027   1.725
 1641W        W 2838   0.766   6.490   4.750
 1642W        W 2839   6.610   2.008   7.665
 1643W        W 2840   5.943   7.490   2.121
 1644W        W 2841   3.714   6.869   0.295
 1645W        W 2842   4.883   0.308   0.446
 1646W        W 2843   2.308   3.787   7.320
 1647W        W 2844   2.179   4.201   5.958
 1648W        W 2845   4.270   4.141   6.190
 1649W        W 2846   4.616   1.846   1.382
 1650W        W 2847   1.573   0.384   4.582
 1651W        W 2848   1.293   4.122   1.702
 1652W        W 2849   1.215   3.061   5.914
 1653W        W 2850   1.364   0.711   1.909
 1654W        W 2851   0.721   5.963   5.409
 1655W        W 2852   2.170   4.913   3.719
 1656W        W 2853   5.205   3.388   0.588
 1657W        W 2854   4.047   6.348   3.892
 1658W        W 2855   5.036   3.868   1.023
 1659W        W 2856   3.318   1.371   1.550
 1660W        W 2857   3.852   3.025   1.763
 1661W        W 2858   6.383   1.554   7.511
 1662W        W 2859   3.671   7.465   4.715
 1663W        W 2860   4.329   4.651   0.978
 1664W        W 2861   0.715   6.990   4.646
 1665W        W 2862   4.883   4.704   7.157
 1666W        W 2863   6.255   2.020   4.540
 1667W        W 2864   0.548   2.462   1.569
 1668W        W 2865   4.487   5.047   1.235
 1669W        W 2866   2.172   6.763   0.433
 1670W        W 2867   2.230   5.879   0.403
 1671W        W 2868   0.988   3.514   5.086
 1672W        W 2869   2.072   5.509   5.415
 1673W        W 2870   6.074   4.177   2.809
 1674W        W 2871   4.080   4.237   6.683
 1675W        W 2872   0.621   6.282   2.585
 1676W        W 2873   4.929   5.654   6.654
 1677W        W 2874   4.505   1.092   6.669
 1678W        W 2875   0.290   6.139   6.042
 1679W        W 2876   7.285   7.605   3.871
 1680W        W 2877   6.005   7.506   5.724
 1681W        W 2878   3.982   4.589   2.126
 1682W        W 2879   5.631   0.344   2.737
 1683W        W 2880   5.580   7.423   4.392
 1684W        W 2881   5.927   2.244   2.715
 1685W        W 2882   3.972   0.976   2.861
 1686W        W 2883   7.447   6.249   5.807
 1687W        W 2884   2.034   0.786   1.824
 1688W        W 2885   7.803   0.754   4.114
 1689W        W 2886   4.717   4.169   0.270
 1690W        W 2887   0.612   7.069   7.615
 1691W        W 2888   2.352   5.459   0.670
 1692W        W 2889   1.368   7.756   1.100
 1693W        W 2890   4.551   5.998   4.611
 1694W        W 2891   0.932   1.536   7.806
 1695W        W 2892   1.355   7.960   7.427
 1696W        W 2893   3.856   3.053   6.327
 1697W        W 2894   2.370   6.774   1.299
 1698W        W 2895   7.390   6.099   1.076
 1699W        W 2896   6.983   6.902   2.143
 1700W        W 2897   3.032   2.300   0.911
 1701W        W 2898   3.312   3.741   7.089
 1702W        W 2899   3.918   2.826   0.213
 1703W        W 2900   4.656   6.791   7.052
 1704W        W 2901   3.806   6.906   2.221
 1705W        W 2902   7.464   4.337   1.413
 1706W        W 2903   0.824   4.641   7.502
 1707W        W 2904   0.574   4.829   6.865
 1708W        W 2905   1.505   1.445   5.910
 1709W        W 2906   6.421   3.439   1.378
 1710W        W 2907   2.523   3.767   3.990
 1711W        W 2908   5.718   6.797   7.143
 1712W        W 2909   4.141   2.110   4.654
 1713W        W 2910   3.156   3.795   2.145
 1714W        W 2911   7.337   2.077   0.571
 1715W        W 2912   7.699   6.299   0.657
 1716W        W 2913   5.039   2.898   5.793
 1717W        W 2914   6.321   3.321   0.828
 1718W        W 2915   5.976   1.385   1.665
 1719W        W 2916   2.449   1.452   6.961
 1720W        W 2917   7.434   7.999   7.757
 1721W        W 2918   6.953   3.751   4.740
 1722W        W 2919   3.286   7.186   5.262
 1723W        W 2920   3.228   1.384   4.333
 1724W        W 2921   4.507   1.992   3.671
 1725W        W 2922   4.557   0.474   6.112
 1726W        W 2923   6.096   7.198   1.694
 1727W        W 2924   3.501   5.123   1.203
 1728W        W 2925   0.218   3.341   0.548
 1729W        W 2926   6.651   5.012   3.663
 1730W        W 2927   2.243   6.374   6.846
 1731W        W 2928   2.236   1.807   3.504
 1732W        W 2929   3.303   4.917   6.917
 1733W        W 2930   4.609   3.604   7.491
 1734W        W 2931   0.145   7.014   7.565
 1735W        W 2932   6.803   1.985   6.028
 1736W        W 2933   5.795   7.642   5.286
 1737W        W 2934   6.118   6.671   2.613
 1738W        W 2935   4.283   4.278   0.635
 1739W        W 2936   3.646   5.627   4.519
 1740W        W 2937   0.041   3.567   4.054
 1741W        W 2938   5.750   0.903   2.899
 1742W        W 2939   5.680   3.808   3.481
 1743W        W 2940   6.958   3.903   5.267
 1744W        W 2941   1.268   3.395   4.717
 1745W        W 2942   0.211   6.146   2.027
 1746W        W 2943   4.886   3.186   5.348
 1747W        W 2944   3.319   6.605   1.799
 1748W        W 2945   0.096   0.840   5.805
 1749W        W 2946   3.081   6.574   6.422
 1750W        W 2947   0.478   5.827   0.451
 1751W        W 2948   1.130   4.680   3.813
 1752W        W 2949   5.034   5.779   4.941
 1753W        W 2950   7.385   6.463   0.108
 1754W        W 2951   0.993   4.627   2.170
 1755W        W 2952   6.219   3.480   1.869
 1756W        W 2953   0.039   1.014   4.501
 1757W        W 2954   3.275   5.192   5.873
 1758W        W 2955   1.488   3.470   6.015
 1759W        W 2956   5.521   7.260   0.821
 1760W        W 2957   6.844   4.263   6.637
 1761W        W 2958   0.263   5.949   2.745
 1762W        W 2959   2.051   0.698   1.134
 1763W        W 2960   5.958   1.234   0.640
 1764W        W 2961   3.764   1.533   2.223
 1765W        W 2962   7.117   4.665   0.600
 1766W        W 2963   2.245   1.882   6.034
 1767W        W 2964   1.216   2.837   3.160
 1768W        W 2965   3.278   0.957   6.817
 1769W        W 2966   5.989   2.246   0.315
 1770W        W 2967   7.474   4.896   3.837
 1771W        W 2968   0.162   5.335   3.125
 1772W        W 2969   0.639   0.516   3.984
 1773W        W 2970   5.772   5.408   1.892
 1774W        W 2971   1.679   3.131   3.960
 1775W        W 2972   4.232   7.719   1.172
 1776W        W 2973   0.231   0.396   6.987
 1777W        W 2974   4.848   2.928   6.281
 1778W        W 2975   5.347   1.805   7.285
 1779W        W 2976   5.484   5.382   1.431
 1780W        W 2977   4.147   1.825   2.859
 1781W        W 2978   2.121   5.639   6.736
 1782W        W 2979   0.173   6.455   2.522
 1783W        W 2980   3.278   2.746   0.980
 1784W        W 2981   0.910   2.543   2.820
 1785W        W 2982   7.288   0.628   2.954
 1786W        W 2983   5.340   0.979   6.624
 1787W        W 2984   6.087   0.257   5.507
 1788W        W 2985   1.905   5.102   4.144
 1789W        W 2986   6.699   5.577   6.068
 1790W        W 2987   1.514   6.414   4.897
 1791W        W 2988   3.148   2.064   6.582
 1792W        W 2989   7.590   4.065   6.029
 1793W        W 2990   7.778   2.212   3.494
 1794W        W 2991   2.633   6.592   6.671
 1795W        W 2992   3.049   3.194   0.397
 1796W        W 2993   7.161   2.308   6.846
 1797W        W 2994   5.751   4.509   2.904
 1798W        W 2995   1.516   6.114   0.282
 1799W        W 2996   2.008   2.416   2.989
 1800W        W 2997   6.247   5.436   5.905
 1801W        W 2998   5.797   3.576   0.022
 1802W        W 2999   6.622   0.755   5.958
 1803W        W 3000   3.004   6.184   6.099
 1804W        W 3001   1.817   4.992   1.822
 1805W        W 3002   4.865   2.099   6.601
 1806W        W 3003   6.064   3.808   1.584
 1807W        W 3004   5.454   0.482   0.221
 1808W        W 3005   3.931   4.829   6.378
 1809W        W 3006   2.298   0.101   5.777
 1810W        W 3007   4.674   1.634   4.049
 1811W        W 3008   4.324   1.275   2.658
 1812W        W 3009   6.648   5.476   3.956
 1813W        W 3010   3.206   0.200   7.426
 1814W        W 3011   3.348   5.392   4.159
 1815W        W 3012   6.829   1.081   2.116
 1816W        W 3013   3.873   3.403   4.280
 1817W        W 3014   0.250   5.444   2.615
 1818W        W 3015   2.171   3.129   1.158
 1819W        W 3016   0.761   5.834   1.365
 1820W        W 3017   2.897   5.189   1.945
 1821W        W 3018   6.924   5.663   7.516
 1822W        W 3019   0.252   6.321   5.505
 1823W        W 3020   0.999   1.575   1.240
 1824W        W 3021   2.669   5.857   0.711
 1825W        W 3022   2.109   6.761   4.220
 1826W        W 3023   1.855   0.008   4.644
 1827W        W 3024   1.808   0.282   6.695
 1828W        W 3025   4.581   3.576   0.203
 1829W        W 3026   1.275   3.983   5.953
 1830W        W 3027   7.166   7.340   7.073
 1831W        W 3028   4.955   7.670   5.810
 1832W        W 3029   6.068   6.120   1.895
 1833W        W 3030   3.845   4.224   0.864
 1834W        W 3031   4.206   1.064   4.467
 1835W        W 3032   3.553   7.069   3.098
 1836W        W 3033   0.218   5.814   7.459
 1837W        W 3034   3.240   5.366   7.827
 1838W        W 3035   6.828   2.538   2.613
 1839W        W 3036   7.382   1.826   7.628
 1840W        W 3037   7.585   2.101   4.553
 1841W        W 3038   3.335   7.377   3.873
 1842W        W 3039   6.986   1.091   7.327
 1843W        W 3040   3.232   3.637   1.184
 1844W        W 3041   7.208   6.114   2.773
 1845W        W 3042   2.496   3.248   1.568
 1846W        W 3043   5.125   4.333   6.740
 1847W        W 3044   3.246   3.966   4.592
 1848W        W 3045   4.933   3.135   0.230
 1849W        W 3046   5.919   0.474   3.160
 1850W        W 3047   3.987   5.360   6.617
 1851W        W 3048   6.694   0.054   2.632
 1852W        W 3049   7.046   1.351   2.748
 1853W        W 3050   1.183   2.925   4.479
 1854W        W 3051   5.804   2.326   4.417
 1855W        W 3052   2.756   1.468   7.538
 1856W        W 3053   2.851   1.354   4.767
 1857W        W 3054   5.550   0.934   0.903
 1858W        W 3055   2.230   4.743   2.211
 1859W        W 3056   1.994   3.242   5.618
 1860W        W 3057   7.504   0.718   2.275
 1861W        W 3058   3.090   7.742   7.182
 1862W        W 3059   4.484   4.262   1.770
 1863W        W 3060   1.609   5.640   1.037
 1864W        W 3061   6.337   6.748   3.548
 1865W        W 3062   2.731   3.539   2.157
 1866W        W 3063   4.734   1.451   7.433
 1867W        W 3064   5.458   7.250   7.553
 1868W        W 3065   4.716   6.765   3.543
 1869W        W 3066   1.042   4.241   4.080
 1870W        W 3067   7.744   3.892   3.563
 1871W        W 3068   0.779   0.999   0.453
 1872W        W 3069   1.308   3.509   7.007
 1873W        W 3070   1.600   0.992   1.243
 1874W        W 3071   2.386   7.083   7.388
 1875W        W 3072   3.090   7.656   1.864
 1876W        W 3073   1.947   4.569   5.697
 1877W        W 3074   4.389   6.038   6.102
 1878W        W 3075   3.083   3.534   2.502
 1879W        W 3076   1.068   6.386   6.983
 1880W        W 3077   5.890   4.705   6.356
 1881W        W 3078   1.229   0.181   0.542
 1882W        W 3079   1.354   1.459   6.841
 1883W        W 3080   1.082   0.725   7.076
 1884W        W 3081   0.538   5.265   0.141
 1885W        W 3082   6.805   6.437   2.152
 1886W        W 3083   3.837   6.798   3.835
 1887W        W 3084   4.247   6.437   7.319
 1888W        W 3085   7.244   0.813   4.263
 1889W        W 3086   5.303   5.041   3.127
 1890W        W 3087   3.117   3.294   7.520
 1891W        W 3088   2.739   3.922   6.057
 1892W        W 3089   1.110   3.821   1.276
 1893W        W 3090   0.104   6.058   0.834
 1894W        W 3091   5.989   6.834   2.167
 1895W        W 3092   6.769   6.851   5.832
 1896W        W 3093   4.480   1.822   4.931
 1897W        W 3094   4.725   0.042   3.589
 1898W        W 3095   7.475   1.578   0.488
 1899W        W 3096   3.558   2.223   5.276
 1900W        W 3097   1.804   0.351   5.506
 1901W        W 3098   5.708   1.903   0.037
 1902W        W 3099   5.630   6.787   1.121
 1903W        W 3100   4.373   0.793   0.964
 1904W        W 3101   4.092   1.777   3.399
 1905W        W 3102   0.644   2.928   1.359
 1906W        W 3103   6.453   3.035   7.293
 1907W        W 3104   4.664   1.779   1.867
 1908W        W 3105   7.704   1.951   6.328
 1909W        W 3106   5.886   0.027   5.063
 1910W        W 3107   0.372   2.585   6.091
 1911W        W 3108   0.018   7.813   7.121
 1912W        W 3109   7.154   1.682   3.069
 1913W        W 3110   1.773   5.616   6.378
 1914W        W 3111   1.520   5.386   2.095
 1915W        W 3112   1.019   1.694   5.050
 1916W        W 3113   2.013   0.075   6.290
 1917W        W 3114   7.173   7.619   3.381
 1918W        W 3115   7.083   1.412   3.457
 1919W        W 3116   2.583   0.053   0.162
 1920W        W 3117   2.198   3.979   4.941
 1921W        W 3118   7.267   2.039   4.888
 1922W        W 3119   7.338   6.605   1.920
 1923W        W 3120   1.641   7.805   5.591
 1924W        W 3121   5.860   1.826   3.177
 1925W        W 3122   1.119   1.322   1.653
 1926W        W 3123   6.616   3.000   2.510
 1927W        W 3124   1.498   6.300   7.258
 1928W        W 3125   7.880   4.695   2.447
 1929W        W 3126   7.939   7.609   1.269
 1930W        W 3127   7.814   6.561   6.840
 1931W        W 3128   4.960   4.899   5.403
 1932W        W 3129   3.399   1.465   7.873
 1933W        W 3130   4.192   6.397   4.677
 1934W        W 3131   0.905   2.939   1.780
 1935W        W 3132   6.565   5.266   1.696
 1936W        W 3133   2.230   5.745   7.698
 1937W        W 3134   1.069   1.086   6.610
 1938W        W 3135   2.942   1.370   0.471
 1939W        W 3136   7.490   3.705   5.539
 1940W        W 3137   7.928   7.158   1.884
 1941W        W 3138   6.058   4.792   2.478
 1942W        W 3139   2.781   0.949   5.994
 1943W        W 3140   6.084   7.280   4.401
 1944W        W 3141   4.510   0.641   0.463
 1945W        W 3142   3.231   4.870   3.951
 1946W        W 3143   2.786   2.278   2.540
 1947W        W 3144   3.359   7.246   2.620
 1948W        W 3145   1.111   5.001   6.637
 1949W        W 3146   1.914   4.505   0.423
 1950W        W 3147   4.808   0.959   5.238
 1951W        W 3148   6.547   1.250   2.513
 1952W        W 3149   3.953   4.801   4.660
 1953W        W 3150   2.474   4.554   3.569
 1954W        W 3151   7.683   7.643   1.674
 1955W        W 3152   4.058   2.877   5.157
 1956W        W 3153   0.227   0.752   3.516
 1957W        W 3154   2.263   0.605   6.523
 1958W        W 3155   0.232   0.842   4.000
 1959W        W 3156   2.121   3.572   5.233
 1960W        W 3157   6.693   0.490   2.870
 1961W        W 3158   2.684   4.019   1.933
 1962W        W 3159   2.143   5.431   0.147
 1963W        W 3160   6.948   5.099   0.420
 1964W        W 3161   4.020   3.477   7.739
 1965W        W 3162   2.827   0.854   6.900
 1966W        W 3163   4.912   7.167   6.819
 1967W        W 3164   7.252   3.724   3.317
 1968W        W 3165   0.162   1.208   6.194
 1969W        W 3166   4.949   4.012   3.649
 1970W        W 3167   0.939   2.608   1.054
 1971W        W 3168   6.930   3.290   1.548
 1972W        W 3169   6.875   2.443   7.941
 1973W        W 3170   2.224   7.372   2.325
 1974W        W 3171   1.354   6.380   3.694
 1975W        W 3172   0.232   0.326   0.117
 1976W        W 3173   6.595   7.303   4.501
 1977W        W 3174   7.065   3.438   6.826
 1978W        W 3175   2.483   2.831   2.485
 1979W        W 3176   7.006   7.441   1.834
 1980W        W 3177   2.497   5.128   0.319
 1981W        W 3178   4.160   1.781   2.363
 1982W        W 3179   6.145   3.224   7.673
 1983W        W 3180   5.229   1.415   3.787
 1984W        W 3181   7.013   5.180   2.507
 1985W        W 3182   2.883   2.815   3.299
 1986W        W 3183   4.945   3.942   1.648
 1987W        W 3184   6.393   6.526   5.815
 1988W        W 3185   1.610   4.718   1.373
 1989W        W 3186   1.421   4.692   0.411
 1990W        W 3187   5.711   2.009   6.919
 1991W        W 3188   3.969   2.968   3.260
 1992W        W 3189   0.714   2.734   4.520
 1993W        W 3190   0.744   3.989   0.786
 1994W        W 3191   6.964   1.535   2.299
 1995W        W 3192   1.916   6.162   6.509
 1996W        W 3193   3.886   2.596   6.532
 1997W        W 3194   4.173   0.688   4.726
 1998W        W 3195   6.142   3.025   2.139
 1999W        W 3196   0.879   4.754   4.268
 2000W        W 3197   2.978   5.242   6.632
 2001W        W 3198   5.367   4.123   7.115
 2002W        W 3199   6.887   0.308   4.326
 2003W        W 3200   7.839   1.862   0.694
 2004W        W 3201   6.764   7.893   6.301
 2005W        W 3202   2.869   5.454   3.157
 2006W        W 3203   0.456   6.649   3.371
 2007W        W 3204   6.847   7.061   6.775
 2008W        W 3205   6.100   5.880   4.204
 2009W        W 3206   0.696   2.593   5.201
 2010W        W 3207   4.785   7.683   3.005
 2011W        W 3208   3.725   7.776   2.289
 2012W        W 3209   3.485   1.510   4.750
 2013W        W 3210   6.052   5.610   7.202
 2014W        W 3211   5.561   2.458   2.033
 2015W        W 3212   0.203   4.385   2.512
 2016W        W 3213   7.213   2.023   6.405
 2017W        W 3214   7.265   3.383   4.131
 2018W        W 3215   0.897   2.437   1.927
 2019W        W 3216   6.744   5.944   5.570
 2020W        W 3217   5.191   4.403   4.922
 2021W        W 3218   1.011   4.268   3.553
 2022W        W 3219   4.041   0.098   2.881
 2023W        W 3220   5.980   0.222   6.923
 2024W        W 3221   1.931   5.643   1.890
 2025W        W 3222   5.361   5.747   4.392
 2026W        W 3223   5.150   4.302   1.191
 2027W        W 3224   7.346   5.819   4.287
 2028W        W 3225   3.982   0.049   1.331
 2029W        W 3226   0.950   7.602   7.897
 2030W        W 3227   2.175   4.301   4.528
 2031W        W 3228   4.747   2.482   2.916
 2032W        W 3229   7.028   7.809   1.031
 2033W        W 3230   5.490   1.311   1.813
 2034W        W 3231   4.339   5.586   4.381
 2035W        W 3232   5.755   4.057   4.010
 2036W        W 3233   3.614   5.681   6.101
 2037W        W 3234   6.375   0.152   3.029
 2038W        W 3235   6.007   2.726   6.585
 2039W        W 3236   5.124   7.519   0.590
 2040W        W 3237   0.631   2.561   6.552
 2041W        W 3238   6.940   7.160   3.148
 2042W        W 3239   2.343   4.822   4.155
 2043W        W 3240   0.904   0.203   6.894
 2044W        W 3241   6.977   2.464   1.216
 2045W        W 3242   4.050   4.918   1.443
 2046W        W 3243   1.003   7.335   3.802
 2047W        W 3244   7.680   2.976   3.495
 2048W        W 3245   6.036   4.268   4.576
 2049W        W 3246   7.041   7.097   7.540
 2050W        W 3247   0.184   4.545   7.415
 2051W        W 3248   3.354   2.013   1.790
 2052W        W 3249   5.449   2.810   6.303
 2053W        W 3250   0.665   0.563   4.547
 2054W        W 3251   5.555   7.621   7.290
 2055W        W 3252   7.685   3.752   0.675
 2056W        W 3253   7.342   4.455   4.127
 2057W        W 3254   0.872   0.546   1.706
 2058W        W 3255   7.572   0.771   0.087
 2059W        W 3256   3.516   5.082   0.621
 2060W        W 3257   5.756   2.698   0.226
 2061W        W 3258   6.722   6.583   0.658
 2062W        W 3259   1.899   2.264   4.275
 2063W        W 3260   6.558   6.847   0.143
 2064W        W 3261   1.786   7.842   0.605
 2065W        W 3262   1.247   2.453   5.273
 2066W        W 3263   5.907   4.243   7.130
 2067W        W 3264   6.799   7.672   5.475
 2068W        W 3265   0.806   3.828   6.025
 2069W        W 3266   4.331   5.525   0.889
 2070W        W 3267   2.074   1.051   0.724
 2071W        W 3268   6.397   7.263   3.116
 2072W        W 3269   5.363   1.553   5.650
 2073W        W 3270   5.110   0.027   7.707
 2074W        W 3271   4.911   1.143   4.080
 2075W        W 3272   3.717   5.742   5.093
 2076W        W 3273   4.792   2.132   4.068
 2077W        W 3274   7.317   7.223   4.236
 2078W        W 3275   1.492   0.154   5.789
 2079W        W 3276   0.327   2.872   7.453
 2080W        W 3277   1.078   7.080   2.087
 2081W        W 3278   0.613   0.002   0.178
 2082W        W 3279   6.871   3.910   6.229
 2083W        W 3280   2.419   6.278   0.534
 2084W        W 3281   7.835   2.327   2.343
 2085W        W 3282   2.330   4.349   0.738
 2086W        W 3283   4.846   5.551   4.475
 2087W        W 3284   5.207   3.082   6.648
 2088W        W 3285   3.010   2.529   6.167
 2089W        W 3286   1.520   3.293   3.084
 2090W        W 3287   5.039   4.198   2.823
 2091W        W 3288   2.634   6.972   4.249
 2092W        W 3289   7.788   2.970   6.560
 2093W        W 3290   4.422   0.979   3.282
 2094W        W 3291   4.621   4.225   5.770
 2095W        W 3292   1.565   6.430   4.329
 2096W        W 3293   6.818   5.697   1.894
 2097W        W 3294   4.923   0.493   1.603
 2098W        W 3295   6.733   6.893   7.191
 2099W        W 3296   4.916   3.628   2.192
 2100W        W 3297   4.574   7.926   4.492
 2101W        W 3298   6.431   2.981   4.706
 2102W        W 3299   4.453   1.194   1.762
 2103W        W 3300   3.291   6.397   4.633
 2104W        W 3301   6.050   6.236   2.412
 2105W        W 3302   0.318   6.306   3.936
 2106W        W 3303   5.599   6.659   2.415
 2107W        W 3304   7.719   2.776   5.212
 2108W        W 3305   6.858   0.999   4.632
 2109W        W 3306   6.632   4.112   7.472
 2110W        W 3307   4.568   6.102   7.586
 2111W        W 3308   6.335   5.825   4.635
 2112W        W 3309   4.731   1.141   2.898
 2113W        W 3310   0.518   0.560   5.704
 2114W        W 3311   7.566   3.554   1.996
 2115W        W 3312   5.144   0.091   0.880
 2116W        W 3313   7.455   4.821   1.507
 2117W        W 3314   7.360   2.670   0.803
 2118W        W 3315   0.305   2.608   4.757
 2119W        W 3316   3.042   6.882   7.897
 2120W        W 3317   4.836   0.914   2.460
 2121W        W 3318   4.485   1.081   3.947
 2122W        W 3319   2.814   2.144   1.301
 2123W        W 3320   7.560   2.897   0.353
 2124W        W 3321   3.531   2.557   3.964
 2125W        W 3322   4.115   3.401   3.527
 2126W        W 3323   4.010   0.363   7.172
 2127W        W 3324   6.451   7.251   5.908
 2128W        W 3325   4.643   2.299   1.643
 2129W        W 3326   5.734   6.775   3.586
 2130W        W 3327   1.245   1.892   7.627
 2131W        W 3328   6.143   5.036   1.992
 2132W        W 3329   3.060   7.139   1.803
 2133W        W 3330   0.136   7.306   4.068
 2134W        W 3331   7.712   2.916   1.059
 2135W        W 3332   6.502   4.965   6.060
 2136W        W 3333   1.917   1.758   4.161
 2137W        W 3334   4.830   5.991   4.145
 2138W        W 3335   6.005   5.173   6.258
 2139W        W 3336   2.016   3.438   6.221
 2140W        W 3337   6.293   5.731   2.574
 2141W        W 3338   6.605   0.380   5.674
 2142W        W 3339   1.946   6.233   2.305
 2143W        W 3340   6.194   2.331   4.114
 2144W        W 3341   6.335   2.501   4.544
 2145W        W 3342   7.197   7.111   5.707
 2146W        W 3343   3.845   7.229   3.597
 2147W        W 3344   3.094   5.030   7.484
 2148W        W 3345   1.483   2.462   2.911
 2149W        W 3346   7.127   5.552   6.250
 2150W        W 3347   6.832   3.459   3.281
 2151W        W 3348   2.259   4.979   2.707
 2152W        W 3349   1.927   5.742   3.512
 2153W        W 3350   4.809   7.388   6.248
 2154W        W 3351   1.508   0.918   0.706
 2155W        W 3352   2.419   6.193   7.567
 2156W        W 3353   1.471   1.984   5.645
 2157W        W 3354   6.239   7.153   2.653
 2158W        W 3355   6.896   5.240   6.613
 2159W        W 3356   0.248   6.419   4.520
 2160W        W 3357   5.987   6.706   4.450
 2161W        W 3358   6.414   5.671   0.829
 2162W        W 3359   4.150   6.563   3.433
 2163W        W 3360   5.853   5.479   3.467
 2164W        W 3361   5.027   6.128   3.666
 2165W        W 3362   1.676   0.131   1.333
 2166W        W 3363   6.952   7.493   2.838
 2167W        W 3364   6.462   3.965   1.228
 2168W        W 3365   1.542   2.613   4.929
 2169W        W 3366   6.478   7.410   2.230
 2170W        W 3367   2.854   6.739   5.971
 2171W        W 3368   4.171   7.735   0.390
 2172W        W 3369   6.433   1.727   2.370
 2173W        W 3370   3.476   6.216   6.247
 2174W        W 3371   4.144   1.086   0.563
 2175W        W 3372   5.976   4.273   1.778
 2176W        W 3373   4.231   3.468   6.724
 2177W        W 3374   7.483   5.725   2.533
 2178W        W 3375   4.136   3.286   2.536
 2179W        W 3376   0.953   1.296   4.738
 2180W        W 3377   6.695   3.304   5.453
 2181W        W 3378   5.764   7.248   1.329
 2182W        W 3379   4.039   0.591   4.170
 2183W        W 3380   2.926   2.115   7.123
 2184W        W 3381   5.555   3.660   3.024
 2185W        W 3382   2.247   4.159   6.946
 2186W        W 3383   5.390   3.030   1.382
 2187W        W 3384   6.106   2.278   6.644
 2188W        W 3385   2.685   5.626   4.663
 2189W        W 3386   4.984   1.447   5.905
 2190W        W 3387   1.410   4.859   2.240
 2191W        W 3388   4.997   3.088   4.195
 2192W        W 3389   1.714   3.865   5.086
 2193W        W 3390   5.251   3.082   4.908
 2194W        W 3391   7.133   3.427   5.196
 2195W        W 3392   1.780   2.873   2.126
 2196W        W 3393   3.029   1.021   7.718
 2197W        W 3394   6.670   6.111   7.621
 2198W        W 3395   0.292   7.669   4.888
 2199W        W 3396   7.219   4.737   3.237
 2200W        W 3397   7.135   7.534   6.400
 2201W        W 3398   2.107   2.008   0.655
 2202W        W 3399   6.875   3.095   0.971
 2203W        W 3400   5.652   6.236   1.100
 2204W        W 3401   3.255   7.550   6.398
 2205W        W 3402   3.218   6.107   1.907
 2206W        W 3403   1.544   0.199   5.038
 2207W        W 3404   1.450   0.460   4.087
 2208W        W 3405   2.841   6.672   1.246
 2209W        W 3406   1.278   3.882   4.863
 2210W        W 3407   5.001   5.580   7.208
 2211W        W 3408   5.764   7.175   5.399
 2212W        W 3409   4.330   1.230   4.911
 2213W        W 3410   3.341   5.430   3.134
 2214W        W 3411   5.820   0.175   0.058
 2215W        W 3412   0.478   6.759   5.044
 2216W        W 3413   5.564   5.823   5.305
 2217W        W 3414   4.043   5.097   0.883
 2218W        W 3415   5.302   6.684   0.721
 2219W        W 3416   5.586   1.293   3.450
 2220W        W 3417   0.690   5.426   4.971
 2221W        W 3418   0.700   3.652   7.780
 2222W        W 3419   1.488   5.189   6.388
 2223W        W 3420   3.809   7.745   2.842
 2224W        W 3421   6.523   5.783   7.263
 2225W        W 3422   3.752   0.503   6.073
 2226W        W 3423   0.513   1.830   4.811
 2227W        W 3424   4.783   6.740   2.770
 2228W        W 3425   3.101   5.711   1.584
 2229W        W 3426   5.246   2.146   3.864
 2230W        W 3427   6.967   2.028   1.001
 2231W        W 3428   4.198   2.082   1.728
 2232W        W 3429   2.406   5.881   1.700
 2233W        W 3430   4.833   2.440   3.589
 2234W        W 3431   3.858   0.726   2.009
 2235W        W 3432   1.931   6.158   1.784
 2236W        W 3433   2.208   0.347   1.461
 2237W        W 3434   2.459   0.814   2.590
 2238W        W 3435   6.746   2.628   6.981
 2239W        W 3436   7.754   1.383   6.869
 2240W        W 3437   7.678   3.352   3.801
 2241W        W 3438   3.599   4.221   3.202
 2242W        W 3439   6.668   1.202   5.647
 2243W        W 3440   3.288   3.576   0.228
 2244W        W 3441   2.251   4.376   7.539
 2245W        W 3442   4.640   3.769   4.008
 2246W        W 3443   1.031   7.581   2.617
 2247W        W 3444   6.590   5.412   2.234
 2248W        W 3445   4.944   2.586   4.064
 2249W        W 3446   4.989   1.796   3.641
 2250W        W 3447   3.642   3.473   2.554
 2251W        W 3448   3.650   0.017   5.881
 2252W        W 3449   1.544   5.166   0.676
 2253W        W 3450   4.218   7.699   3.800
 2254W        W 3451   0.378   6.253   4.988
 2255W        W 3452   7.775   6.169   2.697
 2256W        W 3453   6.416   1.033   4.864
 2257W        W 3454   6.368   3.887   6.190
 2258W        W 3455   4.657   2.781   7.385
 2259W        W 3456   2.210   7.171   6.605
 2260W        W 3457   2.523   4.450   1.529
 2261W        W 3458   7.815   3.313   6.166
 2262W        W 3459   6.375   5.073   3.197
 2263W        W 3460   0.129   3.465   3.483
 2264W        W 3461   7.636   6.668   2.387
 2265W        W 3462   6.046   2.979   1.639
 2266W        W 3463   2.842   3.989   1.144
 2267W        W 3464   1.386   7.552   7.050
 2268W        W 3465   3.419   3.750   6.563
 2269W        W 3466   2.886   6.345   3.040
 2270W        W 3467   2.489   5.551   3.482
 2271W        W 3468   6.005   6.215   4.596
 2272W        W 3469   7.345   7.023   2.639
 2273W        W 3470   1.671   1.758   0.733
 2274W        W 3471   4.665   0.310   2.633
 2275W        W 3472   0.728   5.926   4.751
 2276W        W 3473   7.587   2.137   1.851
 2277W        W 3474   1.582   1.811   6.262
 2278W        W 3475   7.780   3.028   2.000
 2279W        W 3476   5.125   4.773   4.623
 2280W        W 3477   5.635   0.753   5.704
 2281W        W 3478   6.228   5.542   5.016
 2282W        W 3479   6.794   5.913   0.044
 2283W        W 3480   3.796   7.309   6.534
 2284W        W 3481   3.983   2.134   7.231
 2285W        W 3482   3.016   0.458   6.063
 2286W        W 3483   4.167   2.570   2.006
 2287W        W 3484   7.516   3.142   2.407
 2288W        W 3485   4.122   0.905   3.715
 2289W        W 3486   6.085   6.156   1.349
 2290W        W 3487   5.216   2.380   5.041
 2291W        W 3488   3.280   5.508   2.105
 2292W        W 3489   2.648   4.766   7.577
 2293W        W 3490   6.948   5.027   1.369
 2294W        W 3491   7.701   6.138   2.143
 2295W        W 3492   5.475   5.899   7.382
 2296W        W 3493   3.161   6.835   0.380
 2297W        W 3494   4.757   3.484   4.378
 2298W        W 3495   0.737   3.278   4.419
 2299W        W 3496   6.111   6.953   5.798
 2300W        W 3497   2.654   5.614   5.578
 2301W        W 3498   0.277   2.676   4.247
 2302W        W 3499   1.253   7.497   6.562
 2303W        W 3500   2.128   1.851   0.100
 2304W        W 3501   0.079   3.171   7.051
 2305W        W 3502   2.124   1.533   0.523
 2306W        W 3503   5.721   2.465   5.275
 2307W        W 3504   7.246   2.710   7.094
 2308W        W 3505   0.382   2.418   2.772
 2309W        W 3506   6.748   0.224   3.354
 2310W        W 3507   7.149   4.594   1.848
 2311W        W 3508   7.420   6.188   3.252
 2312W        W 3509   2.365   4.870   1.741
 2313W        W 3510   4.668   2.637   5.943
 2314W        W 3511   5.416   0.299   1.415
 2315W        W 3512   6.664   1.625   4.260
 2316W        W 3513   2.472   4.007   7.906
 2317W        W 3514   5.545   7.827   1.351
 2318W        W 3515   0.124   0.319   5.971
 2319W        W 3516   6.416   1.162   0.953
 2320W        W 3517   0.616   5.456   4.477
 2321W        W 3518   4.770   0.497   1.006
 2322W        W 3519   4.948   4.407   4.291
 2323W        W 3520   4.021   0.525   1.183
 2324W        W 3521   6.944   0.792   2.590
 2325W        W 3522   1.874   6.790   5.058
 2326W        W 3523   7.388   7.790   0.654
 2327W        W 3524   1.058   6.603   5.652
 2328W        W 3525   5.939   0.068   0.571
 2329W        W 3526   5.789   1.072   3.986
 2330W        W 3527   0.399   6.776   7.109
 2331W        W 3528   2.339   1.238   5.069
 2332W        W 3529   2.571   6.662   5.562
 2333W        W 3530   1.515   5.928   3.133
 2334W        W 3531   0.562   5.079   2.993
 2335W        W 3532   0.048   2.331   1.604
 2336W        W 3533   5.876   3.898   5.409
 2337W        W 3534   6.328   3.468   2.389
 2338W        W 3535   7.739   4.039   4.773
 2339W        W 3536   7.054   3.440   6.324
 2340W        W 3537   0.449   6.542   6.282
 2341W        W 3538   3.318   0.495   0.563
 2342W        W 3539   4.597   5.111   0.743
 2343W        W 3540   1.876   1.648   5.698
 2344W        W 3541   6.973   7.115   6.179
 2345W        W 3542   0.422   0.924   4.851
 2346W        W 3543   3.531   5.749   1.316
 2347W        W 3544   5.920   3.782   2.504
 2348W        W 3545   6.714   0.337   0.696
 2349W        W 3546   3.046   5.043   3.254
 2350W        W 3547   3.563   3.407   1.516
 2351W        W 3548   6.870   7.807   7.817
 2352W        W 3549   1.387   1.882   1.261
 2353W        W 3550   0.260   2.685   6.922
 2354W        W 3551   1.723   7.499   2.662
 2355W        W 3552   5.693   3.337   6.945
 2356W        W 3553   0.535   3.169   6.935
 2357W        W 3554   4.471   3.153   5.026
 2358W        W 3555   2.558   7.414   1.910
 2359W        W 3556   0.105   3.608   2.334
 2360W        W 3557   0.006   4.725   1.240
 2361W        W 3558   5.573   7.132   2.179
 2362W        W 3559   3.560   7.734   1.169
 2363W        W 3560   7.490   5.391   5.845
 2364W        W 3561   6.955   5.023   1.962
 2365W        W 3562   2.977   3.056   5.062
 2366W        W 3563   0.345   7.358   4.519
 2367W        W 3564   4.143   5.910   4.855
 2368W        W 3565   6.805   5.598   0.408
 2369W        W 3566   7.733   5.711   0.834
 2370W        W 3567   0.812   1.661   2.568
 2371W        W 3568   4.363   5.885   3.957
 2372W        W 3569   5.164   0.648   5.404
 2373W        W 3570   4.376   6.682   0.408
 2374W        W 3571   1.649   6.723   0.546
 2375W        W 3572   3.604   2.147   6.891
 2376W        W 3573   1.018   7.369   0.304
 2377W        W 3574   0.497   7.269   5.866
 2378W        W 3575   4.168   1.601   1.884
 2379W        W 3576   1.307   0.519   7.608
 2380W        W 3577   3.632   4.877   5.559
 2381W        W 3578   6.402   2.012   1.215
 2382W        W 3579   7.448   2.473   3.769
 2383W        W 3580   5.906   1.622   7.385
 2384W        W 3581   3.027   5.059   0.292
 2385W        W 3582   5.255   0.737   2.779
 2386W        W 3583   2.864   7.593   2.671
 2387W        W 3584   2.968   3.367   1.743
 2388W        W 3585   0.337   0.353   1.144
 2389W        W 3586   0.361   1.744   7.038
 2390W        W 3587   5.133   6.178   1.843
 2391W        W 3588   5.234   1.069   5.671
 2392W        W 3589   4.977   0.911   0.710
 2393W        W 3590   6.980   4.215   0.385
 2394W        W 3591   6.265   4.616   0.497
 2395W        W 3592   0.693   2.947   6.170
 2396W        W 3593   0.556   1.485   3.769
 2397W        W 3594   5.365   5.581   1.020
 2398W        W 3595   5.735   7.279   4.881
 2399W        W 3596   0.565   5.424   2.066
 2400W        W 3597   0.652   7.721   6.337
 2401W        W 3598   5.180   2.272   4.394
 2402W        W 3599   6.424   0.415   7.258
 2403W        W 3600   3.671   0.622   3.031
 2404W        W 3601   2.970   3.943   0.026
 2405W        W 3602   1.914   5.865   0.026
 2406W        W 3603   7.019   2.481   5.075
 2407W        W 3604   5.348   3.596   5.300
 2408W        W 3605   2.742   3.623   7.659
 2409W        W 3606   2.320   0.459   7.355
 2410W        W 3607   2.188   4.181   5.445
 2411W        W 3608   4.994   5.218   1.131
 2412W        W 3609   2.401   7.662   2.614
 2413W        W 3610   2.248   3.767   3.332
 2414W        W 3611   2.496   0.292   6.236
 2415W        W 3612   2.027   6.950   7.004
 2416W        W 3613   5.732   7.474   3.623
 2417W        W 3614   7.351   5.460   0.594
 2418W        W 3615   4.112   5.575   5.922
 2419W        W 3616   6.792   3.656   4.180
 2420W        W 3617   4.207   2.737   1.044
 2421W        W 3618   3.397   7.189   6.759
 2422W        W 3619   1.558   7.899   6.714
 2423W        W 3620   4.589   4.633   0.505
 2424W        W 3621   7.105   2.168   5.639
 2425W        W 3622   6.606   0.809   6.475
 2426W        W 3623   3.922   1.346   3.645
 2427W        W 3624   7.095   3.638   1.883
 2428W        W 3625   3.593   1.170   1.919
 2429W        W 3626   2.097   5.184   6.334
 2430W        W 3627   1.702   3.344   5.098
 2431W        W 3628   5.229   7.800   4.676
 2432W        W 3629   4.772   6.931   2.233
 2433W        W 3630   4.193   1.589   4.560
 2434W        W 3631   4.607   1.358   4.465
 2435W        W 3632   6.422   1.648   5.957
 2436W        W 3633   0.075   6.754   4.087
 2437W        W 3634   5.718   2.274   3.918
 2438W        W 3635   1.393   2.884   0.928
 2439W        W 3636   3.058   2.220   2.966
 2440W        W 3637   5.589   7.199   3.195
 2441W        W 3638   5.912   6.695   5.431
 2442W        W 3639   6.210   6.125   0.825
 2443W        W 3640   3.890   2.319   1.078
 2444W        W 3641   5.753   5.306   4.319
 2445W        W 3642   0.509   3.820   0.246
 2446W        W 3643   5.437   7.804   5.547
 2447W        W 3644   4.380   7.188   1.236
 2448W        W 3645   7.499   0.765   1.802
 2449W        W 3646   2.671   1.025   0.761
 2450W        W 3647   0.570   7.420   0.092
 2451W        W 3648   7.607   1.091   5.214
 2452W        W 3649   5.216   4.017   4.122
 2453W        W 3650   0.159   5.154   6.984
 2454W        W 3651   1.156   7.763   4.077
 2455W        W 3652   2.675   1.722   1.055
 2456W        W 3653   6.451   5.179   0.423
 2457W        W 3654   1.880   6.525   1.425
 2458W        W 3655   0.325   7.020   6.262
 2459W        W 3656   4.205   2.435   0.133
 2460W        W 3657   3.630   3.316   3.366
 2461W        W 3658   2.681   5.839   6.015
 2462W        W 3659   2.871   3.415   5.350
 2463W        W 3660   2.589   2.262   0.769
 2464W        W 3661   0.083   7.937   2.788
 2465W        W 3662   1.427   7.550   7.745
 2466W        W 3663   7.312   3.500   2.806
 2467W        W 3664   2.446   2.640   0.448
 2468W        W 3665   0.281   1.747   3.311
 2469W        W 3666   5.383   6.156   3.094
 2470W        W 3667   3.305   6.341   6.872
 2471W        W 3668   5.276   7.496   3.361
 2472W        W 3669   2.683   4.563   2.004
 2473W        W 3670   6.428   5.386   6.414
 2474W        W 3671   4.001   7.482   5.566
 2475W        W 3672   1.161   0.759   2.502
 2476W        W 3673   4.167   6.508   5.791
 2477W        W 3674   2.758   4.150   3.712
 2478W        W 3675   0.785   0.665   6.697
 2479W        W 3676   3.474   1.128   1.159
 2480W        W 3677   1.960   1.695   1.705
 2481W        W 3678   7.498   5.787   5.313
 2482W        W 3679   3.669   1.598   1.698
 2483W        W 3680   6.566   6.957   1.403
 2484W        W 3681   2.570   5.866   3.061
 2485W        W 3682   1.692   2.810   0.502
 2486W        W 3683   5.311   5.943   1.339
 2487W        W 3684   4.580   5.062   2.598
 2488W        W 3685   2.388   1.718   5.486
 2489W        W 3686   4.038   4.363   2.595
 2490W        W 3687   1.007   4.147   7.490
 2491W        W 3688   2.507   5.349   1.600
 2492W        W 3689   4.043   7.312   6.964
 2493W        W 3690   4.386   1.266   6.179
 2494W        W 3691   6.120   0.530   5.931
 2495W        W 3692   2.690   0.122   7.272
 2496W        W 3693   5.972   0.220   7.443
 2497W        W 3694   7.751   4.845   6.838
 2498W        W 3695   2.852   5.828   2.154
 2499W        W 3696   1.063   1.896   1.708
 2500W        W 3697   2.323   3.788   5.739
 2501W        W 3698   3.314   3.757   3.485
 2502W        W 3699   3.992   2.676   3.703
 2503W        W 3700   1.751   3.885   6.434
 2504W        W 3701   6.971   1.765   6.738
 2505W        W 3702   3.514   5.623   2.727
 2506W        W 3703   5.407   0.866   7.115
 2507W        W 3704   7.586   2.940   2.819
 2508W        W 3705   2.941   3.943   5.629
 2509W        W 3706   6.937   2.368   2.131
 2510W        W 3707   2.582   6.225   0.985
 2511W        W 3708   5.544   1.766   3.837
 2512W        W 3709   6.619   1.096   7.711
 2513W        W 3710   2.931   3.060   2.293
 2514W        W 3711   1.123   7.188   4.267
 2515W        W 3712   2.894   2.756   0.642
 2516W        W 3713   4.837   1.539   3.198
 2517W        W 3714   6.963   6.473   7.093
 2518W        W 3715   2.811   7.005   5.059
 2519W        W 3716   6.893   5.071   5.193
 2520W        W 3717   7.417   4.170   5.291
 2521W        W 3718   6.913   4.042   7.070
 2522W        W 3719   7.155   6.183   7.506
 2523W        W 3720   7.773   5.127   4.943
 2524W        W 3721   6.335   5.809   0.360
 2525W        W 3722   7.732   1.634   1.085
 2526W        W 3723   1.000   5.871   6.157
 2527W        W 3724   4.285   1.510   0.373
 2528W        W 3725   2.436   1.738   1.533
 2529W        W 3726   0.779   4.868   6.282
 2530W        W 3727   3.260   4.584   3.289
 2531W        W 3728   6.609   2.451   5.908
 2532W        W 3729   0.387   3.370   7.539
 2533W        W 3730   4.436   4.952   4.700
 2534W        W 3731   5.545   2.630   5.819
 2535W        W 3732   1.404   2.020   2.185
 2536W        W 3733   2.704   7.130   1.074
 2537W        W 3734   0.081   4.084   7.220
 2538W        W 3735   2.168   1.323   7.575
 2539W        W 3736   1.284   0.581   5.247
 2540W        W 3737   3.938   2.545   4.599
 2541W        W 3738   3.305   6.248   3.908
 2542W        W 3739   5.047   1.882   4.796
 2543W        W 3740   7.404   4.451   6.934
 2544W        W 3741   2.725   4.810   0.696
 2545W        W 3742   7.445   5.691   7.374
 2546W        W 3743   1.779   5.837   7.500
 2547W        W 3744   4.773   4.473   2.067
 2548W        W 3745   6.054   0.955   2.444
 2549W        W 3746   0.097   5.353   7.504
 2550W        W 3747   6.928   6.967   5.344
 2551W        W 3748   1.612   1.833   0.224
 2552W        W 3749   4.544   4.298   2.798
 2553W        W 3750   3.662   7.024   7.143
 2554W        W 3751   7.754   2.915   4.730
 2555W        W 3752   1.880   7.500   6.780
 2556W        W 3753   1.968   1.488   6.143
 2557W        W 3754   3.397   2.205   7.298
 2558W        W 3755   2.638   5.580   2.656
 2559W        W 3756   6.586   7.082   1.879
 2560W        W 3757   4.848   0.703   3.729
 2561W        W 3758   2.348   4.055   1.148
 2562W        W 3759   1.020   6.960   7.857
 2563W        W 3760   0.843   4.232   3.082
 2564W        W 3761   0.961   3.154   7.178
 2565W        W 3762   0.508   2.250   4.451
 2566W        W 3763   6.508   3.033   1.689
 2567W        W 3764   5.181   0.446   6.438
 2568W        W 3765   4.795   2.756   5.034
 2569W        W 3766   3.099   7.176   5.902
 2570W        W 3767   5.938   5.882   3.728
 2571W        W 3768   3.253   7.249   7.232
 2572W        W 3769   3.636   7.107   4.286
 2573W        W 3770   2.627   2.178   0.225
 2574W        W 3771   1.843   3.847   5.953
 2575W        W 3772   1.382   2.455   5.771
 2576W        W 3773   5.668   0.645   2.311
 2577W        W 3774   7.350   7.728   2.054
 2578W        W 3775   6.603   2.841   0.006
 2579W        W 3776   0.430   5.011   7.394
 2580W        W 3777   0.116   2.283   0.522
 2581W        W 3778   0.863   5.963   2.829
 2582W        W 3779   7.716   4.485   2.925
 2583W        W 3780   3.848   3.998   2.857
 2584W        W 3781   3.340   2.351   1.299
 2585W        W 3782   6.099   2.473   1.796
 2586W        W 3783   5.504   6.736   7.705
 2587W        W 3784   5.202   0.037   2.373
 2588W        W 3785   7.401   2.665   2.003
 2589W        W 3786   4.008   3.318   0.342
 2590W        W 3787   0.901   0.212   2.792
 2591W        W 3788   3.132   4.363   5.842
 2592W        W 3789   0.499   4.755   1.322
 2593W        W 3790   0.352   3.961   6.317
 2594W        W 3791   3.070   7.349   3.021
 2595W        W 3792   5.671   5.060   2.273
 2596W        W 3793   0.969   1.205   2.800
 2597W        W 3794   0.752   5.058   0.935
 2598W        W 3795   3.207   2.276   4.889
 2599W        W 3796   4.171   6.358   1.576
 2600W        W 3797   5.206   5.593   5.697
 2601W        W 3798   7.386   1.230   2.345
 2602W        W 3799   0.189   2.819   5.303
 2603W        W 3800   2.350   6.068   4.704
 2604W        W 3801   4.935   0.979   7.392
 2605W        W 3802   1.185   6.849   3.728
 2606W        W 3803   4.809   7.666   4.916
 2607W        W 3804   1.055   2.595   4.830
 2608W        W 3805   5.537   3.055   4.506
 2609W        W 3806   3.793   7.193   5.104
 2610W        W 3807   2.762   6.512   1.723
 2611W        W 3808   1.038   2.119   2.606
 2612W        W 3809   4.810   3.757   3.169
 2613W        W 3810   1.083   5.656   5.157
 2614W        W 3811   4.510   6.921   4.274
 2615W        W 3812   2.196   0.491   2.292
 2616W        W 3813   3.878   4.063   2.239
 2617W        W 3814   6.480   6.745   3.036
 2618W        W 3815   6.777   7.642   3.739
 2619W        W 3816   0.762   6.766   6.653
 2620W        W 3817   7.490   3.208   7.014
 2621W        W 3818   5.611   6.297   3.644
 2622W        W 3819   4.681   5.141   7.481
 2623W        W 3820   6.710   6.103   0.598
 2624W        W 3821   4.766   5.849   5.820
 2625W        W 3822   6.676   2.153   7.067
 2626W        W 3823   0.618   7.271   2.359
 2627W        W 3824   2.197   2.656   1.953
 2628W        W 3825   6.139   4.093   3.673
 2629W        W 3826   7.397   1.834   5.380
 2630W        W 3827   5.077   6.977   7.837
 2631W        W 3828   5.399   2.034   2.209
 2632W        W 3829   1.755   2.388   2.059
 2633W        W 3830   7.627   5.361   6.743
 2634W        W 3831   6.924   3.067   7.126
 2635W        W 3832   7.252   4.129   4.787
 2636W        W 3833   6.126   7.167   3.521
 2637W        W 3834   3.113   4.473   1.188
 2638W        W 3835   1.579   4.825   6.908
 2639W        W 3836   0.923   3.950   6.474
 2640W        W 3837   6.915   2.815   1.792
 2641W        W 3838   2.529   0.223   1.072
 2642W        W 3839   4.226   4.744   6.801
 2643W        W 3840   6.264   4.465   6.034
 2644W        W 3841   7.156   1.072   1.734
 2645W        W 3842   1.471   7.468   0.395
 2646W        W 3843   0.900   0.799   4.854
 2647W        W 3844   4.417   7.592   1.710
 2648W        W 3845   3.628   7.147   7.756
 2649W        W 3846   4.921   4.007   5.106
 2650W        W 3847   0.275   5.333   4.146
 2651W        W 3848   1.994   4.544   1.703
 2652W        W 3849   2.027   1.735   7.303
 2653W        W 3850   6.999   5.985   7.067
 2654W        W 3851   1.845   6.662   7.885
 2655W        W 3852   6.505   4.558   6.465
 2656W        W 3853   1.938   6.318   0.345
 2657W        W 3854   3.143   5.886   6.904
 2658W        W 3855   6.866   6.457   0.176
 2659W        W 3856   5.227   6.506   2.741
 2660W        W 3857   2.774   0.661   1.141
 2661W        W 3858   1.544   1.318   6.401
 2662W        W 3859   5.895   2.844   5.518
 2663W        W 3860   4.647   1.710   2.690
 2664W        W 3861   1.334   1.755   3.481
 2665W        W 3862   7.032   0.145   7.198
 2666W        W 3863   5.015   4.413   1.647
 2667W        W 3864   2.377   7.658   3.376
 2668W        W 3865   6.726   5.555   2.871
 2669W        W 3866   4.227   7.814   2.319
 2670W        W 3867   0.531   2.883   2.695
 2671W        W 3868   2.778   1.518   2.149
 2672W        W 3869   3.114   0.284   1.877
 2673W        W 3870   3.112   5.929   0.543
 2674W        W 3871   6.688   4.732   0.235
 2675W        W 3872   3.198   1.667   5.606
 2676W        W 3873   1.455   7.857   0.155
 2677W        W 3874   1.257   7.387   3.048
 2678W        W 3875   4.750   6.637   7.774
 2679W        W 3876   4.266   1.732   7.505
 2680W        W 3877   0.761   6.207   5.806
 2681W        W 3878   3.093   5.717   6.377
 2682W        W 3879   1.941   2.051   5.285
 2683W        W 3880   2.812   0.644   6.459
 2684W        W 3881   3.022   2.365   1.678
 2685W        W 3882   1.236   2.223   0.976
 2686W        W 3883   0.268   6.081   1.350
 2687W        W 3884   7.427   2.251   1.110
 2688W        W 3885   4.780   2.316   4.770
 2689W        W 3886   3.384   0.432   5.697
 2690W        W 3887   0.300   2.243   2.072
 2691W        W 3888   7.054   2.484   6.316
 2692W        W 3889   7.014   4.872   5.627
 2693W        W 3890   7.304   7.566   5.508
 2694W        W 3891   5.210   6.529   3.447
 2695W        W 3892   2.503   3.328   4.440
 2696W        W 3893   4.221   4.088   4.778
 2697W        W 3894   5.496   6.863   5.721
 2698W        W 3895   1.265   6.610   6.551
 2699W        W 3896   2.670   1.308   1.681
 2700W        W 3897   2.553   2.281   1.779
 2701W        W 3898   7.995   4.407   0.012
 2702W        W 3899   7.828   4.101   1.053
 2703W        W 3900   5.467   4.236   1.979
 2704W        W 3901   2.349   3.674   6.796
 2705W        W 3902   3.929   1.036   1.031
 2706W        W 3903   0.733   4.972   4.744
 2707W        W 3904   6.109   1.360   2.777
 2708W        W 3905   5.725   5.373   5.069
 2709W        W 3906   4.303   6.481   6.838
 2710W        W 3907   4.388   3.358   3.107
 2711W        W 3908   2.069   5.553   3.951
 2712W        W 3909   1.171   3.364   5.533
 2713W        W 3910   7.431   1.347   7.389
 2714W        W 3911   2.386   1.780   2.018
 2715W        W 3912   3.438   0.478   6.425
 2716W        W 3913   2.782   3.308   4.014
 2717W        W 3914   5.130   1.191   1.112
 2718W        W 3915   6.228   2.505   5.386
 2719W        W 3916   3.890   6.814   6.146
 2720W        W 3917   2.451   1.045   0.253
 2721W        W 3918   5.116   0.269   2.912
 2722W        W 3919   4.003   5.369   0.467
 2723W        W 3920   4.037   6.694   4.344
 2724W        W 3921   3.452   6.677   6.000
 2725W        W 3922   5.389   0.482   1.891
 2726W        W 3923   5.394   3.290   6.177
 2727W        W 3924   7.941   6.055   5.316
 2728W        W 3925   2.360   6.946   4.741
 2729W        W 3926   2.878   4.314   0.739
 2730W        W 3927   6.525   1.137   3.432
 2731W        W 3928   1.075   6.621   1.856
 2732W        W 3929   0.939   4.389   0.443
 2733W        W 3930   4.791   4.159   7.194
 2734W        W 3931   5.113   3.858   7.496
 2735W        W 3932   5.332   0.055   0.376
 2736W        W 3933   6.705   0.463   6.850
 2737W        W 3934   7.997   0.619   5.394
 2738W        W 3935   0.723   0.353   7.704
 2739W        W 3936   6.503   0.341   6.225
 2740W        W 3937   3.811   7.291   6.022
 2741W        W 3938   6.703   6.035   2.894
 2742W        W 3939   5.022   0.460   7.970
 2743W        W 3940   3.435   4.136   1.398
 2744W        W 3941   3.846   3.499   2.137
 2745W        W 3942   3.785   3.769   4.648
 2746W        W 3943   1.686   3.701   0.635
 2747W        W 3944   5.675   0.338   0.975
 2748W        W 3945   5.453   2.644   4.223
 2749W        W 3946   4.641   0.832   4.653
 2750W        W 3947   5.799   1.516   6.729
 2751W        W 3948   2.385   2.815   7.083
 2752W        W 3949   1.796   7.496   0.951
 2753W        W 3950   7.297   4.839   4.492
 2754W        W 3951   7.584   6.276   1.574
 2755W        W 3952   2.254   3.860   6.311
 2756W        W 3953   1.839   6.214   2.803
 2757W        W 3954   6.126   0.209   3.525
 2758W        W 3955   5.687   3.382   2.159
 2759W        W 3956   4.801   5.121   1.656
 2760W        W 3957   4.336   7.618   4.809
 2761W        W 3958   3.910   0.086   4.446
 2762W        W 3959   6.373   4.905   7.174
 2763W        W 3960   1.493   0.848   2.986
 2764W        W 3961   2.774   5.314   6.002
 2765W        W 3962   7.739   7.456   0.833
 2766W        W 3963   0.761   0.940   5.366
 2767W        W 3964   0.982   3.436   3.674
 2768W        W 3965   3.916   3.835   3.337
 2769W        W 3966   6.796   2.900   6.122
 2770W        W 3967   6.432   6.538   1.062
 2771W        W 3968   0.220   1.001   5.359
 2772W        W 3969   0.941   3.356   0.176
 2773W        W 3970   4.850   1.182   3.539
 2774W        W 3971   3.463   1.956   2.433
 2775W        W 3972   0.250   1.530   1.152
 2776W        W 3973   1.844   4.701   2.684
 2777W        W 3974   4.635   5.937   0.069
 2778W        W 3975   4.637   7.129   1.814
 2779W        W 3976   4.674   3.536   2.702
 2780W        W 3977   0.630   6.261   1.041
 2781W        W 3978   5.158   3.024   3.637
 2782W        W 3979   7.152   6.783   3.943
 2783W        W 3980   2.049   2.758   4.720
 2784W        W 3981   2.636   7.239   3.517
 2785W        W 3982   5.943   0.509   3.955
 2786W        W 3983   0.722   6.187   4.321
 2787W        W 3984   7.444   6.524   6.521
 2788W        W 3985   2.121   2.068   2.654
 2789W        W 3986   7.135   2.193   3.270
 2790W        W 3987   2.512   7.486   5.134
 2791W        W 3988   0.387   2.810   1.919
 2792W        W 3989   7.310   4.114   7.364
 2793W        W 3990   6.324   0.187   4.276
 2794W        W 3991   4.173   2.329   6.114
 2795W        W 3992   6.491   6.887   2.316
 2796W        W 3993   7.849   5.118   0.833
 2797W        W 3994   2.445   7.618   5.628
 2798W        W 3995   6.852   3.196   4.480
 2799W        W 3996   6.506   5.397   6.891
 2800W        W 3997   7.929   3.969   3.127
 2801W        W 3998   6.516   0.948   7.197
 2802W        W 3999   2.589   0.126   4.024
 2803W        W 4000   3.821   6.636   1.848
 2804W        W 4001   7.194   2.185   2.763
 2805W        W 4002   2.995   7.608   3.578
 2806W        W 4003   5.449   3.143   4.019
 2807W        W 4004   3.265   4.502   4.341
 2808W        W 4005   5.207   5.080   7.280
 2809W        W 4006   3.690   2.010   3.009
 2810W        W 4007   5.853   0.378   1.704
 2811W        W 4008   4.266   5.567   3.487
 2812W        W 4009   7.176   4.189   5.776
 2813W        W 4010   2.282   7.631   6.474
 2814W        W 4011   6.912   6.537   1.504
 2815W        W 4012   3.824   4.257   4.527
 2816W        W 4013   4.083   6.909   0.739
 2817W        W 4014   6.551   6.337   3.385
 2818W        W 4015   4.449   3.025   0.132
 2819W        W 4016   6.007   2.740   4.951
 2820W        W 4017   2.389   6.198   5.755
 2821W        W 4018   7.035   2.623   3.040
 2822W        W 4019   7.997   7.211   6.058
 2823W        W 4020   4.297   1.238   7.592
 2824W        W 4021   0.216   2.031   1.173
 2825W        W 4022   1.534   6.012   6.275
 2826W        W 4023   0.617   3.578   1.046
 2827W        W 4024   5.772   2.082   7.512
 2828W        W 4025   6.164   0.806   7.529
 2829W        W 4026   6.859   6.702   3.503
 2830W        W 4027   4.176   1.545   6.597
 2831W        W 4028   7.371   1.735   2.626
 2832W        W 4029   2.099   4.948   1.359
 2833W        W 4030   1.979   2.925   5.196
 2834W        W 4031   3.567   2.859   4.372
 2835W        W 4032   4.079   2.097   6.622
 2836W        W 4033   3.885   4.587   3.527
 2837W        W 4034   1.239   6.828   0.948
 2838W        W 4035   5.523   0.151   3.237
 2839W        W 4036   3.007   3.151   4.463
 2840W        W 4037   2.301   0.606   3.159
 2841W        W 4038   2.064   7.514   6.003
 2842W        W 4039   6.560   1.717   6.454
 2843W        W 4040   5.200   2.707   0.208
 2844W        W 4041   0.317   2.426   7.364
 2845W        W 4042   0.113   2.912   1.570
 2846W        W 4043   6.683   3.322   2.064
 2847W        W 4044   4.180   1.537   4.027
 2848W        W 4045   0.468   0.338   3.131
 2849W        W 4046   1.134   0.975   3.303
 2850W        W 4047   3.106   0.945   3.996
 2851W        W 4048   6.253   7.750   4.413
 2852W        W 4049   6.458   6.458   7.333
 2853W        W 4050   5.521   0.287   5.946
 2854W        W 4051   4.661   3.696   6.931
 2855W        W 4052   3.393   6.711   5.111
 2856W        W 4053   5.649   6.180   1.642
 2857W        W 4054   5.439   6.812   5.209
 2858W        W 4055   0.477   4.680   7.818
 2859W        W 4056   0.556   5.789   2.392
 2860W        W 4057   6.272   7.621   7.019
 2861W        W 4058   2.908   0.750   2.849
 2862W        W 4059   6.942   4.132   2.518
 2863W        W 4060   6.941   1.260   5.189
 2864W        W 4061   0.193   4.663   2.090
 2865W        W 4062   6.306   3.879   4.150
 2866W        W 4063   4.621   4.786   3.974
 2867W        W 4064   7.592   0.064   3.783
 2868W        W 4065   5.298   5.955   6.066
 2869W        W 4066   6.875   7.217   4.084
 2870W        W 4067   2.720   4.298   5.305
 2871W        W 4068   3.233   1.042   4.825
 2872W        W 4069   0.961   5.005   7.124
 2873W        W 4070   6.790   0.918   3.051
 2874W        W 4071   7.971   4.394   3.352
 2875W        W 4072   7.847   5.814   1.770
 2876W        W 4073   4.836   0.853   6.407
 2877W        W 4074   7.211   5.433   1.623
 2878W        W 4075   3.147   5.745   5.887
 2879W        W 4076   1.844   2.214   4.828
 2880W        W 4077   3.231   0.502   3.725
 2881W        W 4078   3.846   1.435   2.737
 2882W        W 4079   5.974   6.562   0.828
 2883W        W 4080   1.681   2.878   2.678
 2884W        W 4081   3.556   5.427   6.785
 2885W        W 4082   7.958   3.791   7.836
 2886W        W 4083   3.629   0.469   7.455
 2887W        W 4084   1.492   4.113   0.441
 2888W        W 4085   4.536   6.672   1.547
 2889W        W 4086   5.346   3.719   1.866
 2890W        W 4087   6.950   4.984   4.108
 2891W        W 4088   7.187   1.433   0.056
 2892W        W 4089   6.548   6.166   1.709
 2893W        W 4090   6.740   5.774   6.680
 2894W        W 4091   1.848   4.244   7.305
 2895W        W 4092   0.741   7.139   2.825
 2896W        W 4093   7.347   5.199   5.365
 2897W        W 4094   6.027   5.222   5.402
 2898W        W 4095   0.199   4.902   2.766
 2899W        W 4096   0.103   1.926   5.540
 2900W        W 4097   3.458   1.292   6.421
 2901W        W 4098   4.924   7.144   5.798
 2902W        W 4099   1.753   3.227   0.841
 2903W        W 4100   0.011   0.347   6.489
 2904W        W 4101   5.957   1.783   5.860
 2905W        W 4102   0.038   1.318   7.673
 2906W        W 4103   3.051   6.778   6.892
 2907W        W 4104   1.999   6.453   4.619
 2908W        W 4105   7.672   7.282   0.382
 2909W        W 4106   1.700   0.416   3.184
 2910W        W 4107   2.213   7.194   0.983
 2911W        W 4108   6.146   2.516   3.667
 2912W        W 4109   5.005   1.973   5.732
 2913W        W 4110   0.570   4.590   2.863
 2914W        W 4111   3.708   5.585   0.030
 2915W        W 4112   5.793   5.722   6.116
 2916W        W 4113   7.382   5.652   7.936
 2917W        W 4114   4.357   3.115   6.390
 2918W        W 4115   1.294   7.133   2.618
 2919W        W 4116   7.555   5.064   6.251
 2920W        W 4117   5.725   3.392   1.641
 2921W        W 4118   6.843   6.020   6.234
 2922W        W 4119   4.943   2.315   2.041
 2923W        W 4120   7.351   1.161   3.073
 2924W        W 4121   6.690   1.098   1.598
 2925W        W 4122   3.062   3.244   3.540
 2926W        W 4123   0.854   0.066   3.326
 2927W        W 4124   0.322   1.238   0.690
 2928W        W 4125   0.511   5.687   3.208
 2929W        W 4126   1.297   7.142   5.489
 2930W        W 4127   7.196   4.701   4.959
 2931W        W 4128   7.395   1.030   4.715
 2932W        W 4129   7.669   7.724   6.275
 2933W        W 4130   0.802   6.497   3.760
 2934W        W 4131   6.560   6.379   6.363
 2935W        W 4132   3.797   1.379   0.326
 2936W        W 4133   6.368   0.883   3.857
 2937W        W 4134   6.456   0.607   3.388
 2938W        W 4135   3.737   2.173   6.263
 2939W        W 4136   7.161   5.829   5.822
 2940W        W 4137   3.023   0.525   4.222
 2941W        W 4138   0.586   1.288   5.096
 2942W        W 4139   7.395   2.613   2.506
 2943W        W 4140   3.339   1.113   0.121
 2944W        W 4141   3.579   7.078   5.626
 2945W        W 4142   1.069   6.801   5.081
 2946W        W 4143   3.610   6.196   1.519
 2947W        W 4144   0.269   3.535   4.534
 2948W        W 4145   4.395   6.037   6.675
 2949W        W 4146   2.917   0.717   1.827
 2950W        W 4147   7.936   0.045   3.374
 2951W        W 4148   1.687   7.264   1.384
 2952W        W 4149   6.117   7.001   4.924
 2953W        W 4150   4.820   1.380   1.488
 2954W        W 4151   5.654   5.918   6.928
 2955W        W 4152   3.329   4.732   1.585
 2956W        W 4153   6.287   3.901   7.209
 2957W        W 4154   5.218   7.600   6.861
 2958W        W 4155   6.056   3.713   0.443
 2959W        W 4156   2.456   2.126   3.058
 2960W        W 4157   4.299   4.938   0.303
 2961W        W 4158   4.535   3.129   1.100
 2962W        W 4159   6.696   7.099   4.926
 2963W        W 4160   4.623   3.627   1.139
 2964W        W 4161   4.431   3.785   3.552
 2965W        W 4162   3.115   7.387   7.729
 2966W        W 4163   6.150   2.592   5.916
 2967W        W 4164   5.071   7.037   0.369
 2968W        W 4165   1.485   7.108   5.036
 2969W        W 4166   7.614   2.536   4.288
 2970W        W 4167   2.879   2.641   1.273
 2971W        W 4168   5.584   6.238   2.162
 2972W        W 4169   5.474   0.937   0.396
 2973W        W 4170   4.891   3.539   4.947
 2974W        W 4171   4.135   7.007   5.707
 2975W        W 4172   2.626   5.089   2.396
 2976W        W 4173   4.911   2.512   5.450
 2977W        W 4174   5.991   7.197   0.743
 2978W        W 4175   2.566   3.027   0.228
 2979W        W 4176   1.639   2.667   7.350
 2980W        W 4177   1.709   2.541   5.395
 2981W        W 4178   7.366   2.889   4.010
 2982W        W 4179   0.833   4.579   5.175
 2983W        W 4180   0.157   5.371   4.594
 2984W        W 4181   0.620   4.815   3.816
 2985W        W 4182   7.425   1.828   6.828
 2986W        W 4183   3.620   1.601   1.189
 2987W        W 4184   3.005   1.747   0.189
 2988W        W 4185   6.544   4.202   4.525
 2989W        W 4186   4.818   4.703   6.672
 2990W        W 4187   7.040   2.248   7.471
 2991W        W 4188   2.837   2.853   1.729
 2992W        W 4189   6.252   2.164   6.140
 2993W        W 4190   1.168   2.728   7.465
 2994W        W 4191   2.291   0.105   0.592
 2995W        W 4192   5.155   7.009   2.498
 2996W        W 4193   0.816   2.248   7.328
 2997W        W 4194   0.989   7.181   5.893
 2998W        W 4195   4.826   7.426   5.397
 2999W        W 4196   3.940   7.340   2.486
 3000W        W 4197   1.952   6.073   6.014
 3001W        W 4198   3.271   4.436   5.319
 3002W        W 4199   5.992   7.705   1.618
 3003W        W 4200   4.662   3.089   7.772
 3004W        W 4201   6.305   3.372   2.875
 3005W        W 4202   3.670   7.549   7.346
 3006W        W 4203   4.697   4.268   4.767
 3007W        W 4204   7.077   2.092   3.833
 3008W        W 4205   4.392   3.644   4.943
 3009W        W 4206   2.018   1.156   6.546
 3010W        W 4207   6.581   4.574   5.619
 3011W        W 4208   0.141   1.204   3.687
 3012W        W 4209   6.267   2.332   7.882
 3013W        W 4210   5.195   6.807   6.129
 3014W        W 4211   2.384   6.654   7.205
 3015W        W 4212   4.917   6.443   7.328
 3016W        W 4213   0.673   7.302   0.692
 3017W        W 4214   2.490   3.171   5.611
 3018W        W 4215   7.359   0.249   4.208
 3019W        W 4216   6.546   1.892   0.675
 3020W        W 4217   2.814   5.380   0.765
 3021W        W 4218   1.911   3.441   6.744
 3022W        W 4219   3.941   3.366   5.051
 3023W        W 4220   6.840   0.130   1.750
 3024W        W 4221   4.835   6.747   6.495
 3025W        W 4222   1.709   4.198   2.667
 3026W        W 4223   2.627   0.199   2.204
 3027W        W 4224   7.965   4.383   6.936
 3028W        W 4225   4.598   7.895   6.204
 3029W        W 4226   6.237   5.294   4.611
 3030W        W 4227   6.464   1.507   1.426
 3031W        W 4228   0.529   2.351   0.221
 3032W        W 4229   3.222   3.049   1.437
 3033W        W 4230   1.870   4.466   4.112
 3034W        W 4231   4.787   4.708   5.009
 3035W        W 4232   0.538   6.621   2.092
 3036W        W 4233   2.206   2.504   5.098
 3037W        W 4234   0.199   2.664   2.385
 3038W        W 4235   2.388   2.894   3.322
 3039W        W 4236   4.762   3.283   6.702
 3040W        W 4237   0.011   6.640   2.133
 3041W        W 4238   0.424   4.086   2.870
 3042W        W 4239   7.746   4.835   3.349
 3043W        W 4240   0.866   5.105   7.626
 3044W        W 4241   7.648   3.556   7.534
 3045W        W 4242   4.329   6.924   2.543
 3046W        W 4243   6.581   2.494   1.553
 3047W        W 4244   0.096   2.253   4.014
 3048W        W 4245   4.731   5.343   5.846
 3049W        W 4246   7.823   6.377   6.175
 3050W        W 4247   2.260   6.919   2.093
 3051W        W 4248   4.495   2.886   6.830
 3052W        W 4249   7.342   1.875   1.439
 3053W        W 4250   5.124   1.674   4.270
 3054W        W 4251   2.340   2.748   1.443
 3055W        W 4252   4.225   0.833   5.986
 3056W        W 4253   0.754   7.033   5.499
 3057W        W 4254   7.116   3.414   2.333
 3058W        W 4255   3.506   3.556   3.897
 3059W        W 4256   4.222   5.349   7.994
 3060W        W 4257   3.798   1.987   2.012
 3061W        W 4258   2.484   0.855   1.479
 3062W        W 4259   2.493   0.891   5.441
 3063W        W 4260   1.903   4.814   6.494
 3064W        W 4261   1.995   1.598   5.111
 3065W        W 4262   7.211   6.690   6.082
 3066W        W 4263   7.024   6.258   6.679
 3067W        W 4264   5.457   1.338   7.069
 3068W        W 4265   0.298   7.556   0.935
 3069W        W 4266   4.997   7.370   2.187
 3070W        W 4267   3.320   5.956   4.833
 3071W        W 4268   5.305   1.714   6.755
 3072W        W 4269   5.463   5.398   0.493
 3073W        W 4270   6.219   6.928   7.135
 3074W        W 4271   6.839   7.016   2.689
 3075W        W 4272   7.820   0.238   1.153
 3076W        W 4273   0.391   1.970   7.560
 3077W        W 4274   0.704   3.334   5.832
 3078W        W 4275   0.265   3.825   1.387
 3079W        W 4276   7.118   1.325   4.286
 3080W        W 4277   6.967   3.881   2.949
 3081W        W 4278   7.328   3.863   2.312
 3082W        W 4279   3.482   7.576   5.630
 3083W        W 4280   4.550   0.363   7.039
 3084W        W 4281   0.932   1.406   5.423
 3085W        W 4282   2.476   6.900   6.206
 3086W        W 4283   6.257   4.506   7.463
 3087W        W 4284   6.836   0.740   3.996
 3088W        W 4285   3.410   7.503   3.382
 3089W        W 4286   2.245   3.002   6.036
 3090W        W 4287   1.736   3.761   4.586
 3091W        W 4288   1.303   6.840   4.637
 3092W        W 4289   7.561   1.375   5.985
 3093W        W 4290   5.838   1.012   6.843
 3094W        W 4291   4.542   6.351   3.727
 3095W        W 4292   5.395   5.350   4.708
 3096W        W 4293   1.109   6.546   2.791
 3097W        W 4294   2.838   6.456   7.571
 3098W        W 4295   7.641   0.391   2.676
 3099W        W 4296   0.761   4.388   6.603
 3100W        W 4297   2.032   4.469   1.172
 3101W        W 4298   5.249   6.548   4.832
 3102W        W 4299   0.823   2.017   2.145
 3103W        W 4300   6.092   0.274   1.284
 3104W        W 4301   2.240   0.195   2.898
 3105W        W 4302   6.921   1.503   6.044
 3106W        W 4303   2.090   6.952   1.632
 3107W        W 4304   0.868   6.791   2.487
 3108W        W 4305   6.345   4.669   4.617
 3109W        W 4306   3.035   5.330   1.266
 3110W        W 4307   3.309   3.119   2.635
 3111W        W 4308   7.962   3.768   6.359
 3112W        W 4309   0.510   7.646   1.389
 3113W        W 4310   1.843   4.437   7.851
 3114W        W 4311   0.082   3.144   2.636
 3115W        W 4312   6.792   4.912   4.668
 3116W        W 4313   5.071   3.741   6.542
 3117W        W 4314   2.142   2.488   6.770
 3118W        W 4315   7.326   6.667   3.432
 3119W        W 4316   4.433   2.152   2.679
 3120W        W 4317   7.477   0.812   1.332
 3121W        W 4318   1.671   5.985   4.610
 3122W        W 4319   3.612   2.999   2.269
 3123W        W 4320   1.716   3.265   0.226
 3124W        W 4321   6.862   1.258   6.570
 3125W        W 4322   5.569   3.620   3.944
 3126W        W 4323   4.315   4.419   0.137
 3127W        W 4324   7.057   2.002   0.095
 3128W        W 4325   4.712   3.321   3.477
 3129W        W 4326   3.079   5.876   1.077
 3130W        W 4327   6.481   4.268   0.208
 3131W        W 4328   6.110   6.320   6.552
 3132W        W 4329   3.480   3.995   5.478
 3133W        W 4330   0.999   3.896   0.369
 3134W        W 4331   1.253   6.368   6.075
 3135W        W 4332   7.290   4.529   1.008
 3136W        W 4333   0.824   3.061   4.860
 3137W        W 4334   5.076   2.845   2.800
 3138W        W 4335   4.312   5.065   4.226
 3139W        W 4336   2.550   3.855   5.265
 3140W        W 4337   2.838   2.910   7.734
 3141W        W 4338   4.730   5.030   2.123
 3142W        W 4339   5.302   4.533   3.096
 3143W        W 4340   5.460   7.517   2.475
 3144W        W 4341   5.535   5.510   2.482
 3145W        W 4342   7.332   1.354   6.404
 3146W        W 4343   3.270   3.087   4.014
 3147W        W 4344   5.425   1.206   4.254
 3148W        W 4345   7.820   1.633   1.681
 3149W        W 4346   3.135   4.905   0.947
 3150W        W 4347   1.015   7.828   1.460
 3151W        W 4348   1.355   5.842   7.738
 3152W        W 4349   5.179   2.493   0.708
 3153W        W 4350   4.732   0.192   6.578
 3154W        W 4351   6.118   1.947   1.675
 3155W        W 4352   5.865   0.965   1.984
   8.00000   8.00000   8.00000
