Martini system from ../2_Creating_coordinates/TYR-ASN-TYR_aa.pdb
 4195
    1TYR     BB    1   7.401   6.968   2.570
    1TYR    SC1    2   7.470   6.687   2.457
    1TYR    SC2    3   7.347   6.707   2.251
    1TYR    SC3    4   7.521   6.588   2.131
    2ASN     BB    5   7.473   7.085   2.219
    2ASN    SC1    6   7.372   7.382   2.260
    3TYR     BB    7   7.309   7.116   1.943
    3TYR    SC1    8   7.412   6.890   1.790
    3TYR    SC2    9   7.301   6.891   1.576
    3TYR    SC3   10   7.509   6.830   1.465
    1TYR     BB   11   7.694   3.013   6.383
    1TYR    SC1   12   7.785   2.845   6.628
    1TYR    SC2   13   7.634   2.660   6.594
    1TYR    SC3   14   7.806   2.503   6.664
    2ASN     BB   15   7.705   2.683   6.201
    2ASN    SC1   16   7.572   2.787   5.933
    3TYR     BB   17   7.504   2.436   6.151
    3TYR    SC1   18   7.615   2.235   6.331
    3TYR    SC2   19   7.479   2.037   6.311
    3TYR    SC3   20   7.677   1.897   6.321
    1TYR     BB   21   2.982   3.742   5.906
    1TYR    SC1   22   3.011   3.757   5.597
    1TYR    SC2   23   3.192   3.600   5.578
    1TYR    SC3   24   3.097   3.511   5.373
    2ASN     BB   25   3.017   3.371   5.854
    2ASN    SC1   26   3.039   3.295   6.160
    3TYR     BB   27   3.259   3.159   5.830
    3TYR    SC1   28   3.261   3.106   5.544
    3TYR    SC2   29   3.437   2.948   5.500
    3TYR    SC3   30   3.297   2.832   5.340
    1TYR     BB   31   6.340   3.500   7.310
    1TYR    SC1   32   6.074   3.656   7.354
    1TYR    SC2   33   6.005   3.538   7.552
    1TYR    SC3   34   5.918   3.744   7.648
    2ASN     BB   35   6.383   3.542   7.682
    2ASN    SC1   36   6.635   3.353   7.709
    3TYR     BB   37   6.292   3.384   7.948
    3TYR    SC1   38   6.078   3.555   8.046
    3TYR    SC2   39   5.993   3.456   8.248
    3TYR    SC3   40   5.973   3.675   8.351
    1TYR     BB   41   3.040   7.098   2.539
    1TYR    SC1   42   2.790   7.284   2.547
    1TYR    SC2   43   2.667   7.174   2.372
    1TYR    SC3   44   2.459   7.208   2.492
    2ASN     BB   45   2.785   6.820   2.516
    2ASN    SC1   46   2.992   6.589   2.459
    3TYR     BB   47   2.621   6.671   2.282
    3TYR    SC1   48   2.356   6.787   2.316
    3TYR    SC2   49   2.213   6.689   2.148
    3TYR    SC3   50   2.031   6.674   2.309
    1TYR     BB   51   7.945   8.192   7.681
    1TYR    SC1   52   7.757   8.042   7.484
    1TYR    SC2   53   7.727   7.845   7.618
    1TYR    SC3   54   7.494   7.830   7.551
    2ASN     BB   55   7.702   8.075   7.944
    2ASN    SC1   56   7.874   8.168   8.193
    3TYR     BB   57   7.662   7.812   8.126
    3TYR    SC1   58   7.437   7.684   7.993
    3TYR    SC2   59   7.388   7.481   8.113
    3TYR    SC3   60   7.149   7.521   8.087
    1TYR     BB   61   6.867   1.301   3.589
    1TYR    SC1   62   6.932   1.008   3.670
    1TYR    SC2   63   7.024   1.058   3.887
    1TYR    SC3   64   6.920   0.858   3.980
    2ASN     BB   65   6.735   1.329   3.941
    2ASN    SC1   66   6.688   1.642   3.935
    3TYR     BB   67   6.855   1.398   4.232
    3TYR    SC1   68   6.862   1.134   4.354
    3TYR    SC2   69   6.950   1.160   4.577
    3TYR    SC3   70   6.791   0.998   4.662
    1TYR     BB   71   1.745   7.087   1.258
    1TYR    SC1   72   2.001   7.016   1.420
    1TYR    SC2   73   1.944   7.141   1.618
    1TYR    SC3   74   2.038   6.966   1.759
    2ASN     BB   75   1.566   7.018   1.582
    2ASN    SC1   76   1.282   7.120   1.487
    3TYR     BB   77   1.487   7.183   1.847
    3TYR    SC1   78   1.680   7.080   2.039
    3TYR    SC2   79   1.641   7.191   2.249
    3TYR    SC3   80   1.679   6.984   2.369
    1TYR     BB   81   7.020   1.431   1.659
    1TYR    SC1   82   6.936   1.227   1.440
    1TYR    SC2   83   6.859   1.389   1.278
    1TYR    SC3   84   6.950   1.255   1.097
    2ASN     BB   85   7.170   1.622   1.370
    2ASN    SC1   86   7.242   1.882   1.535
    3TYR     BB   87   7.070   1.840   1.155
    3TYR    SC1   88   7.047   1.676   0.915
    3TYR    SC2   89   6.971   1.820   0.737
    3TYR    SC3   90   7.121   1.710   0.581
    1TYR     BB   91   0.487   1.116   4.729
    1TYR    SC1   92   0.272   1.239   4.917
    1TYR    SC2   93   0.358   1.147   5.122
    1TYR    SC3   94   0.304   1.353   5.241
    2ASN     BB   95   0.730   1.224   4.996
    2ASN    SC1   96   0.982   1.078   4.874
    3TYR     BB   97   0.847   1.102   5.270
    3TYR    SC1   98   0.702   1.257   5.469
    3TYR    SC2   99   0.774   1.182   5.686
    3TYR    SC3  100   0.772   1.410   5.769
    1TYR     BB  101   2.524   6.803   4.460
    1TYR    SC1  102   2.799   6.810   4.605
    1TYR    SC2  103   2.725   6.929   4.801
    1TYR    SC3  104   2.869   6.794   4.942
    2ASN     BB  105   2.389   6.713   4.800
    2ASN    SC1  106   2.083   6.734   4.721
    3TYR     BB  107   2.287   6.871   5.061
    3TYR    SC1  108   2.512   6.832   5.242
    3TYR    SC2  109   2.458   6.944   5.449
    3TYR    SC3  110   2.555   6.761   5.576
    1TYR     BB  111   2.306   7.857   7.144
    1TYR    SC1  112   2.591   7.955   7.067
    1TYR    SC2  113   2.623   7.807   6.880
    1TYR    SC3  114   2.737   7.983   6.757
    2ASN     BB  115   2.243   7.869   6.772
    2ASN    SC1  116   1.959   7.729   6.781
    3TYR     BB  117   2.283   7.671   6.521
    3TYR    SC1  118   2.516   7.789   6.392
    3TYR    SC2  119   2.566   7.656   6.198
    3TYR    SC3  120   2.617   7.856   6.070
    1TYR     BB  121   4.828   5.829   4.516
    1TYR    SC1  122   4.972   6.062   4.369
    1TYR    SC2  123   5.008   5.946   4.161
    1TYR    SC3  124   4.963   6.150   4.036
    2ASN     BB  125   4.642   5.788   4.191
    2ASN    SC1  126   4.497   5.518   4.268
    3TYR     BB  127   4.688   5.632   3.913
    3TYR    SC1  128   4.763   5.851   3.736
    3TYR    SC2  129   4.803   5.757   3.518
    3TYR    SC3  130   4.694   5.947   3.413
    1TYR     BB  131   7.634   4.517  -0.307
    1TYR    SC1  132   7.523   4.702  -0.083
    1TYR    SC2  133   7.544   4.545   0.098
    1TYR    SC3  134   7.612   4.723   0.249
    2ASN     BB  135   7.897   4.429  -0.051
    2ASN    SC1  136   8.027   4.193  -0.216
    3TYR     BB  137   7.928   4.217   0.190
    3TYR    SC1  138   7.892   4.390   0.422
    3TYR    SC2  139   7.911   4.252   0.619
    3TYR    SC3  140   8.036   4.426   0.733
    1TYR     BB  141   0.272   4.745   1.677
    1TYR    SC1  142   0.517   4.571   1.597
    1TYR    SC2  143   0.482   4.579   1.359
    1TYR    SC3  144   0.722   4.594   1.321
    2ASN     BB  145   0.383   4.965   1.391
    2ASN    SC1  146   0.129   5.154   1.393
    3TYR     BB  147   0.335   4.978   1.073
    3TYR    SC1  148   0.589   4.877   0.973
    3TYR    SC2  149   0.578   4.877   0.732
    3TYR    SC3  150   0.807   4.955   0.718
    1TYR     BB  151   3.218   0.104   7.188
    1TYR    SC1  152   3.103  -0.133   7.355
    1TYR    SC2  153   3.269  -0.129   7.529
    1TYR    SC3  154   3.100  -0.179   7.696
    2ASN     BB  155   3.258   0.271   7.523
    2ASN    SC1  156   3.423   0.520   7.418
    3TYR     BB  157   3.481   0.279   7.756
    3TYR    SC1  158   3.358   0.110   7.959
    3TYR    SC2  159   3.509   0.100   8.147
    3TYR    SC3  160   3.322   0.114   8.301
    1TYR     BB  161   5.537   0.126   1.456
    1TYR    SC1  162   5.316   0.270   1.620
    1TYR    SC2  163   5.278   0.451   1.466
    1TYR    SC3  164   5.040   0.444   1.511
    2ASN     BB  165   5.309   0.191   1.163
    2ASN    SC1  166   5.512   0.098   0.939
    3TYR     BB  167   5.259   0.431   0.953
    3TYR    SC1  168   5.010   0.544   1.054
    3TYR    SC2  169   4.951   0.729   0.911
    3TYR    SC3  170   4.716   0.665   0.921
    1TYR     BB  171   3.952   5.563   4.785
    1TYR    SC1  172   3.657   5.657   4.763
    1TYR    SC2  173   3.648   5.773   4.974
    1TYR    SC3  174   3.510   5.948   4.876
    2ASN     BB  175   4.016   5.914   4.907
    2ASN    SC1  176   4.316   5.866   4.993
    3TYR     BB  177   4.007   6.070   5.189
    3TYR    SC1  178   3.760   6.223   5.162
    3TYR    SC2  179   3.731   6.350   5.364
    3TYR    SC3  180   3.652   6.541   5.236
    1TYR     BB  181   5.665   2.008   8.422
    1TYR    SC1  182   5.861   2.142   8.220
    1TYR    SC2  183   5.757   2.059   8.020
    1TYR    SC3  184   5.799   2.270   7.907
    2ASN     BB  185   5.398   2.128   8.183
    2ASN    SC1  186   5.158   1.975   8.321
    3TYR     BB  187   5.256   2.017   7.916
    3TYR    SC1  188   5.382   2.182   7.712
    3TYR    SC2  189   5.291   2.116   7.499
    3TYR    SC3  190   5.284   2.348   7.427
    1TYR     BB  191   0.283   5.607   8.135
    1TYR    SC1  192   0.000   5.516   8.041
    1TYR    SC2  193  -0.002   5.639   7.834
    1TYR    SC3  194  -0.116   5.456   7.723
    2ASN     BB  195   0.381   5.540   7.778
    2ASN    SC1  196   0.672   5.663   7.799
    3TYR     BB  197   0.382   5.704   7.500
    3TYR    SC1  198   0.155   5.584   7.363
    3TYR    SC2  199   0.134   5.692   7.148
    3TYR    SC3  200   0.081   5.480   7.043
    1TYR     BB  201   2.650   2.780   4.212
    1TYR    SC1  202   2.772   2.519   4.094
    1TYR    SC2  203   2.653   2.524   3.885
    1TYR    SC3  204   2.850   2.441   3.768
    2ASN     BB  205   2.710   2.919   3.867
    2ASN    SC1  206   2.556   3.192   3.913
    3TYR     BB  207   2.551   2.928   3.587
    3TYR    SC1  208   2.698   2.730   3.432
    3TYR    SC2  209   2.596   2.718   3.214
    3TYR    SC3  210   2.814   2.699   3.109
    1TYR     BB  211   6.358   0.310   2.936
    1TYR    SC1  212   6.557   0.532   3.027
    1TYR    SC2  213   6.449   0.583   3.236
    1TYR    SC3  214   6.665   0.612   3.343
    2ASN     BB  215   6.384   0.193   3.293
    2ASN    SC1  216   6.154  -0.023   3.275
    3TYR     BB  217   6.240   0.258   3.573
    3TYR    SC1  218   6.444   0.417   3.707
    3TYR    SC2  219   6.358   0.479   3.923
    3TYR    SC3  220   6.575   0.441   4.025
    1TYR     BB  221   1.989   4.783   4.994
    1TYR    SC1  222   2.210   4.975   5.099
    1TYR    SC2  223   2.089   5.055   5.291
    1TYR    SC3  224   2.293   5.057   5.423
    2ASN     BB  225   1.955   4.684   5.357
    2ASN    SC1  226   1.696   4.507   5.320
    3TYR     BB  227   1.793   4.789   5.614
    3TYR    SC1  228   2.004   4.921   5.765
    3TYR    SC2  229   1.905   5.010   5.966
    3TYR    SC3  230   2.100   4.944   6.095
    1TYR     BB  231   4.205   0.885   3.258
    1TYR    SC1  232   4.143   0.587   3.194
    1TYR    SC2  233   4.127   0.612   2.955
    1TYR    SC3  234   4.236   0.397   2.923
    2ASN     BB  235   4.440   0.860   2.965
    2ASN    SC1  236   4.510   1.168   2.950
    3TYR     BB  237   4.421   0.895   2.645
    3TYR    SC1  238   4.429   0.617   2.557
    3TYR    SC2  239   4.415   0.618   2.316
    3TYR    SC3  240   4.579   0.438   2.304
    1TYR     BB  241   3.032   4.798   1.637
    1TYR    SC1  242   3.267   4.650   1.776
    1TYR    SC2  243   3.316   4.820   1.939
    1TYR    SC3  244   3.362   4.651   2.107
    2ASN     BB  245   2.924   4.879   1.989
    2ASN    SC1  246   2.693   5.080   1.909
    3TYR     BB  247   2.987   5.108   2.207
    3TYR    SC1  248   3.161   4.964   2.392
    3TYR    SC2  249   3.222   5.117   2.567
    3TYR    SC3  250   3.200   4.941   2.733
    1TYR     BB  251   1.831   5.363   7.919
    1TYR    SC1  252   1.696   5.631   8.000
    1TYR    SC2  253   1.674   5.721   7.778
    1TYR    SC3  254   1.458   5.816   7.834
    2ASN     BB  255   1.571   5.359   7.646
    2ASN    SC1  256   1.690   5.111   7.489
    3TYR     BB  257   1.542   5.476   7.348
    3TYR    SC1  258   1.358   5.698   7.392
    3TYR    SC2  259   1.320   5.805   7.179
    3TYR    SC3  260   1.085   5.834   7.232
    1TYR     BB  261   0.318   8.171   1.005
    1TYR    SC1  262   0.607   8.062   1.044
    1TYR    SC2  263   0.572   7.963   1.260
    1TYR    SC3  264   0.714   7.776   1.201
    2ASN     BB  265   0.214   7.833   1.137
    2ASN    SC1  266  -0.094   7.900   1.164
    3TYR     BB  267   0.164   7.700   1.426
    3TYR    SC1  268   0.402   7.535   1.455
    3TYR    SC2  269   0.388   7.423   1.668
    3TYR    SC3  270   0.477   7.219   1.570
    1TYR     BB  271   4.068   8.017   0.988
    1TYR    SC1  272   4.189   8.015   0.701
    1TYR    SC2  273   4.357   7.848   0.742
    1TYR    SC3  274   4.321   7.753   0.521
    2ASN     BB  275   4.093   7.642   0.960
    2ASN    SC1  276   4.018   7.581   1.262
    3TYR     BB  277   4.316   7.417   1.017
    3TYR    SC1  278   4.400   7.350   0.746
    3TYR    SC2  279   4.570   7.180   0.763
    3TYR    SC3  280   4.477   7.063   0.571
    1TYR     BB  281   0.649   3.570   3.850
    1TYR    SC1  282   0.686   3.315   3.675
    1TYR    SC2  283   0.475   3.328   3.561
    1TYR    SC3  284   0.579   3.252   3.355
    2ASN     BB  285   0.520   3.724   3.531
    2ASN    SC1  286   0.418   3.993   3.662
    3TYR     BB  287   0.238   3.744   3.378
    3TYR    SC1  288   0.277   3.554   3.161
    3TYR    SC2  289   0.075   3.551   3.029
    3TYR    SC3  290   0.205   3.538   2.825
    1TYR     BB  291   3.210   1.600   1.416
    1TYR    SC1  292   3.269   1.361   1.607
    1TYR    SC2  293   3.322   1.493   1.802
    1TYR    SC3  294   3.210   1.331   1.944
    2ASN     BB  295   3.020   1.739   1.711
    2ASN    SC1  296   2.965   2.024   1.585
    3TYR     BB  297   3.088   1.917   1.971
    3TYR    SC1  298   3.083   1.715   2.181
    3TYR    SC2  299   3.132   1.825   2.389
    3TYR    SC3  300   2.966   1.691   2.504
    1TYR     BB  301   4.189   6.121   7.288
    1TYR    SC1  302   4.286   6.226   7.565
    1TYR    SC2  303   4.081   6.334   7.628
    1TYR    SC3  304   4.111   6.263   7.859
    2ASN     BB  305   3.877   6.025   7.477
    2ASN    SC1  306   3.708   5.944   7.222
    3TYR     BB  307   3.600   6.167   7.560
    3TYR    SC1  308   3.645   6.216   7.844
    3TYR    SC2  309   3.448   6.324   7.930
    3TYR    SC3  310   3.462   6.193   8.135
    1TYR     BB  311   7.234   4.704   4.175
    1TYR    SC1  312   7.200   4.439   4.015
    1TYR    SC2  313   7.065   4.325   4.178
    1TYR    SC3  314   6.931   4.224   4.002
    2ASN     BB  315   6.865   4.665   4.245
    2ASN    SC1  316   6.845   4.900   4.456
    3TYR     BB  317   6.683   4.514   4.464
    3TYR    SC1  318   6.584   4.288   4.309
    3TYR    SC2  319   6.442   4.157   4.454
    3TYR    SC3  320   6.285   4.121   4.273
    1TYR     BB  321   4.859   4.598   7.647
    1TYR    SC1  322   5.053   4.432   7.468
    1TYR    SC2  323   4.904   4.408   7.280
    1TYR    SC3  324   5.090   4.433   7.126
    2ASN     BB  325   4.789   4.787   7.328
    2ASN    SC1  326   4.549   4.958   7.443
    3TYR     BB  327   4.589   4.758   7.077
    3TYR    SC1  328   4.771   4.661   6.871
    3TYR    SC2  329   4.643   4.631   6.669
    3TYR    SC3  330   4.825   4.720   6.536
    1TYR     BB  331   2.492   5.761   4.438
    1TYR    SC1  332   2.454   5.788   4.131
    1TYR    SC2  333   2.617   5.622   4.067
    1TYR    SC3  334   2.474   5.547   3.886
    2ASN     BB  335   2.491   5.390   4.368
    2ASN    SC1  336   2.574   5.300   4.659
    3TYR     BB  337   2.707   5.166   4.285
    3TYR    SC1  338   2.643   5.127   4.004
    3TYR    SC2  339   2.795   4.961   3.918
    3TYR    SC3  340   2.616   4.860   3.788
    1TYR     BB  341   4.064   3.720   4.421
    1TYR    SC1  342   3.914   3.448   4.440
    1TYR    SC2  343   3.695   3.532   4.388
    1TYR    SC3  344   3.645   3.332   4.259
    2ASN     BB  345   3.856   3.769   4.110
    2ASN    SC1  346   3.938   4.071   4.062
    3TYR     BB  347   3.564   3.883   4.039
    3TYR    SC1  348   3.417   3.637   3.986
    3TYR    SC2  349   3.191   3.698   3.930
    3TYR    SC3  350   3.185   3.527   3.757
    1TYR     BB  351   0.303   2.829   2.782
    1TYR    SC1  352   0.092   3.026   2.665
    1TYR    SC2  353   0.111   2.956   2.435
    1TYR    SC3  354  -0.128   2.982   2.404
    2ASN     BB  355   0.136   2.576   2.558
    2ASN    SC1  356   0.348   2.346   2.603
    3TYR     BB  357   0.162   2.480   2.252
    3TYR    SC1  358  -0.073   2.604   2.132
    3TYR    SC2  359  -0.075   2.546   1.899
    3TYR    SC3  360  -0.316   2.515   1.905
    1TYR     BB  361   4.170   7.014   2.565
    1TYR    SC1  362   3.985   7.264   2.553
    1TYR    SC2  363   3.950   7.262   2.315
    1TYR    SC3  364   3.718   7.329   2.345
    2ASN     BB  365   3.919   6.864   2.328
    2ASN    SC1  366   4.085   6.602   2.263
    3TYR     BB  367   3.871   6.857   2.009
    3TYR    SC1  368   3.648   7.043   1.981
    3TYR    SC2  369   3.593   7.056   1.747
    3TYR    SC3  370   3.356   7.059   1.800
    1TYR     BB  371   1.746   0.654   5.217
    1TYR    SC1  372   1.574   0.843   5.039
    1TYR    SC2  373   1.514   0.999   5.212
    1TYR    SC3  374   1.534   1.185   5.057
    2ASN     BB  375   1.886   0.975   5.356
    2ASN    SC1  376   2.050   0.842   5.591
    3TYR     BB  377   1.808   1.184   5.590
    3TYR    SC1  378   1.702   1.406   5.434
    3TYR    SC2  379   1.635   1.578   5.589
    3TYR    SC3  380   1.722   1.750   5.441
    1TYR     BB  381   2.296   2.569   1.814
    1TYR    SC1  382   2.026   2.718   1.861
    1TYR    SC2  383   2.019   2.832   1.649
    1TYR    SC3  384   1.779   2.800   1.636
    2ASN     BB  385   2.155   2.501   1.471
    2ASN    SC1  386   2.419   2.378   1.349
    3TYR     BB  387   2.147   2.651   1.186
    3TYR    SC1  388   1.871   2.746   1.179
    3TYR    SC2  389   1.840   2.864   0.972
    3TYR    SC3  390   1.619   2.767   0.946
    1TYR     BB  391   6.623   5.815   3.547
    1TYR    SC1  392   6.847   5.974   3.401
    1TYR    SC2  393   6.880   5.817   3.221
    1TYR    SC3  394   6.913   5.999   3.064
    2ASN     BB  395   6.484   5.764   3.200
    2ASN    SC1  396   6.259   5.558   3.283
    3TYR     BB  397   6.525   5.554   2.959
    3TYR    SC1  398   6.684   5.712   2.773
    3TYR    SC2  399   6.729   5.573   2.581
    3TYR    SC3  400   6.695   5.763   2.433
    1TYR     BB  401   0.488   1.368   3.632
    1TYR    SC1  402   0.621   1.091   3.680
    1TYR    SC2  403   0.822   1.173   3.783
    1TYR    SC3  404   0.822   0.986   3.939
    2ASN     BB  405   0.605   1.443   3.982
    2ASN    SC1  406   0.531   1.750   3.978
    3TYR     BB  407   0.873   1.555   4.122
    3TYR    SC1  408   0.984   1.311   4.236
    3TYR    SC2  409   1.189   1.370   4.347
    3TYR    SC3  410   1.137   1.218   4.530
    1TYR     BB  411   3.132   6.076   0.760
    1TYR    SC1  412   3.397   5.917   0.802
    1TYR    SC2  413   3.319   5.708   0.712
    1TYR    SC3  414   3.535   5.668   0.609
    2ASN     BB  415   3.128   5.907   0.423
    2ASN    SC1  416   2.838   6.002   0.340
    3TYR     BB  417   3.023   5.628   0.301
    3TYR    SC1  418   3.273   5.482   0.269
    3TYR    SC2  419   3.219   5.265   0.178
    3TYR    SC3  420   3.414   5.275   0.033
    1TYR     BB  421   5.605   6.262   6.331
    1TYR    SC1  422   5.814   6.441   6.185
    1TYR    SC2  423   5.836   6.304   5.988
    1TYR    SC3  424   5.853   6.503   5.848
    2ASN     BB  425   5.441   6.243   5.992
    2ASN    SC1  426   5.227   6.023   6.069
    3TYR     BB  427   5.467   6.060   5.728
    3TYR    SC1  428   5.608   6.240   5.547
    3TYR    SC2  429   5.640   6.123   5.339
    3TYR    SC3  430   5.591   6.326   5.214
    1TYR     BB  431   4.151   3.489   5.815
    1TYR    SC1  432   3.865   3.467   5.936
    1TYR    SC2  433   3.930   3.371   6.147
    1TYR    SC3  434   3.761   3.503   6.262
    2ASN     BB  435   4.244   3.619   6.157
    2ASN    SC1  436   4.556   3.621   6.109
    3TYR     BB  437   4.333   3.492   6.440
    3TYR    SC1  438   4.089   3.523   6.596
    3TYR    SC2  439   4.131   3.433   6.815
    3TYR    SC3  440   4.006   3.615   6.917
    1TYR     BB  441   2.867   2.924   7.183
    1TYR    SC1  442   3.093   3.127   7.252
    1TYR    SC2  443   3.125   3.058   7.480
    1TYR    SC3  444   3.365   3.091   7.459
    2ASN     BB  445   3.086   2.677   7.366
    2ASN    SC1  446   2.877   2.440   7.368
    3TYR     BB  447   3.129   2.582   7.671
    3TYR    SC1  448   3.381   2.714   7.737
    3TYR    SC2  449   3.435   2.657   7.965
    3TYR    SC3  450   3.669   2.633   7.906
    1TYR     BB  451   5.631   2.367   3.062
    1TYR    SC1  452   5.380   2.512   2.950
    1TYR    SC2  453   5.449   2.514   2.719
    1TYR    SC3  454   5.220   2.472   2.647
    2ASN     BB  455   5.588   2.142   2.763
    2ASN    SC1  456   5.860   1.984   2.799
    3TYR     BB  457   5.681   2.141   2.454
    3TYR    SC1  458   5.433   2.214   2.319
    3TYR    SC2  459   5.479   2.220   2.083
    3TYR    SC3  460   5.264   2.116   2.036
    1TYR     BB  461   6.282   2.870   1.703
    1TYR    SC1  462   6.546   3.007   1.612
    1TYR    SC2  463   6.447   3.155   1.449
    1TYR    SC3  464   6.602   3.332   1.511
    2ASN     BB  465   6.144   3.221   1.701
    2ASN    SC1  466   5.842   3.139   1.749
    3TYR     BB  467   6.009   3.419   1.485
    3TYR    SC1  468   6.228   3.604   1.433
    3TYR    SC2  469   6.151   3.765   1.271
    3TYR    SC3  470   6.265   3.943   1.389
    1TYR     BB  471   0.150   2.664  -0.282
    1TYR    SC1  472   0.352   2.465  -0.155
    1TYR    SC2  473   0.443   2.617   0.009
    1TYR    SC3  474   0.456   2.437   0.172
    2ASN     BB  475   0.075   2.758   0.075
    2ASN    SC1  476  -0.109   3.007   0.007
    3TYR     BB  477   0.193   2.962   0.294
    3TYR    SC1  478   0.338   2.780   0.470
    3TYR    SC2  479   0.437   2.912   0.645
    3TYR    SC3  480   0.383   2.741   0.809
    1TYR     BB  481   6.241   6.810   2.564
    1TYR    SC1  482   6.168   6.571   2.750
    1TYR    SC2  483   6.386   6.542   2.847
    1TYR    SC3  484   6.287   6.492   3.063
    2ASN     BB  485   6.425   6.940   2.867
    2ASN    SC1  486   6.567   7.181   2.720
    3TYR     BB  487   6.717   6.904   2.998
    3TYR    SC1  488   6.659   6.728   3.223
    3TYR    SC2  489   6.866   6.686   3.338
    3TYR    SC3  490   6.754   6.703   3.552
    1TYR     BB  491   6.486   2.862   4.258
    1TYR    SC1  492   6.288   3.018   4.075
    1TYR    SC2  493   6.437   3.045   3.888
    1TYR    SC3  494   6.254   3.010   3.733
    2ASN     BB  495   6.567   2.671   3.943
    2ASN    SC1  496   6.812   2.511   4.063
    3TYR     BB  497   6.768   2.704   3.693
    3TYR    SC1  498   6.584   2.790   3.484
    3TYR    SC2  499   6.714   2.823   3.283
    3TYR    SC3  500   6.537   2.724   3.149
    1TYR     BB  501   1.636   3.760   5.518
    1TYR    SC1  502   1.399   3.921   5.640
    1TYR    SC2  503   1.449   3.874   5.871
    1TYR    SC3  504   1.384   4.100   5.934
    2ASN     BB  505   1.838   3.923   5.792
    2ASN    SC1  506   2.102   3.755   5.745
    3TYR     BB  507   1.907   3.861   6.101
    3TYR    SC1  508   1.738   4.055   6.237
    3TYR    SC2  509   1.772   4.027   6.474
    3TYR    SC3  510   1.766   4.268   6.506
    1TYR     BB  511   2.865   7.878   3.554
    1TYR    SC1  512   2.575   7.832   3.659
    1TYR    SC2  513   2.636   7.739   3.872
    1TYR    SC3  514   2.452   7.855   3.980
    2ASN     BB  515   2.929   8.009   3.902
    2ASN    SC1  516   3.243   8.035   3.871
    3TYR     BB  517   3.013   7.885   4.188
    3TYR    SC1  518   2.759   7.895   4.331
    3TYR    SC2  519   2.797   7.806   4.551
    3TYR    SC3  520   2.653   7.976   4.648
    1TYR     BB  521   0.219   7.996   4.417
    1TYR    SC1  522   0.424   8.033   4.648
    1TYR    SC2  523   0.419   7.805   4.727
    1TYR    SC3  524   0.657   7.812   4.771
    2ASN     BB  525   0.410   7.678   4.348
    2ASN    SC1  526   0.210   7.563   4.132
    3TYR     BB  527   0.403   7.373   4.452
    3TYR    SC1  528   0.636   7.366   4.627
    3TYR    SC2  529   0.651   7.144   4.718
    3TYR    SC3  530   0.893   7.148   4.694
    1TYR     BB  531   1.028   4.420   6.664
    1TYR    SC1  532   0.784   4.303   6.819
    1TYR    SC2  533   0.899   4.265   7.027
    1TYR    SC3  534   0.702   4.333   7.152
    2ASN     BB  535   1.089   4.613   6.982
    2ASN    SC1  536   1.371   4.730   6.896
    3TYR     BB  537   1.244   4.564   7.260
    3TYR    SC1  538   1.021   4.516   7.441
    3TYR    SC2  539   1.114   4.476   7.660
    3TYR    SC3  540   0.936   4.605   7.763
    1TYR     BB  541   0.949   3.482   7.197
    1TYR    SC1  542   0.902   3.784   7.255
    1TYR    SC2  543   0.686   3.760   7.358
    1TYR    SC3  544   0.740   3.934   7.519
    2ASN     BB  545   0.817   3.433   7.547
    2ASN    SC1  546   0.799   3.117   7.532
    3TYR     BB  547   0.528   3.398   7.685
    3TYR    SC1  548   0.492   3.660   7.808
    3TYR    SC2  549   0.279   3.659   7.920
    3TYR    SC3  550   0.372   3.784   8.106
    1TYR     BB  551   0.901   6.168   5.982
    1TYR    SC1  552   1.124   6.166   6.200
    1TYR    SC2  553   1.243   6.359   6.121
    1TYR    SC3  554   1.287   6.429   6.349
    2ASN     BB  555   0.893   6.539   6.048
    2ASN    SC1  556   0.700   6.612   5.809
    3TYR     BB  557   1.050   6.800   5.942
    3TYR    SC1  558   1.226   6.857   6.168
    3TYR    SC2  559   1.356   7.051   6.111
    3TYR    SC3  560   1.334   7.136   6.337
    1TYR     BB  561   0.458   4.551   3.541
    1TYR    SC1  562   0.657   4.376   3.378
    1TYR    SC2  563   0.511   4.334   3.191
    1TYR    SC3  564   0.698   4.351   3.037
    2ASN     BB  565   0.386   4.713   3.209
    2ASN    SC1  566   0.141   4.887   3.308
    3TYR     BB  567   0.190   4.660   2.959
    3TYR    SC1  568   0.376   4.552   2.762
    3TYR    SC2  569   0.250   4.503   2.563
    3TYR    SC3  570   0.431   4.587   2.424
    1TYR     BB  571   5.586   4.293   1.869
    1TYR    SC1  572   5.865   4.211   1.980
    1TYR    SC2  573   5.832   4.291   2.204
    1TYR    SC3  574   5.952   4.100   2.294
    2ASN     BB  575   5.457   4.151   2.194
    2ASN    SC1  576   5.159   4.250   2.159
    3TYR     BB  577   5.410   4.258   2.495
    3TYR    SC1  578   5.633   4.133   2.635
    3TYR    SC2  579   5.619   4.200   2.866
    3TYR    SC3  580   5.683   3.976   2.937
    1TYR     BB  581   1.029   4.229   0.917
    1TYR    SC1  582   0.923   4.425   1.134
    1TYR    SC2  583   0.845   4.257   1.289
    1TYR    SC3  584   0.919   4.391   1.477
    2ASN     BB  585   1.172   4.041   1.211
    2ASN    SC1  586   1.266   3.787   1.047
    3TYR     BB  587   1.071   3.815   1.417
    3TYR    SC1  588   1.026   3.973   1.658
    3TYR    SC2  589   0.948   3.823   1.829
    3TYR    SC3  590   1.083   3.937   1.995
    1TYR     BB  591  -0.082   7.012   5.593
    1TYR    SC1  592   0.219   6.969   5.662
    1TYR    SC2  593   0.187   6.788   5.817
    1TYR    SC3  594   0.388   6.679   5.735
    2ASN     BB  595  -0.091   6.635   5.573
    2ASN    SC1  596  -0.405   6.610   5.544
    3TYR     BB  597  -0.135   6.390   5.778
    3TYR    SC1  598   0.137   6.290   5.807
    3TYR    SC2  599   0.129   6.103   5.959
    3TYR    SC3  600   0.291   5.983   5.823
    1TYR     BB  601   1.408  -0.173   2.957
    1TYR    SC1  602   1.328   0.119   2.884
    1TYR    SC2  603   1.091   0.094   2.922
    1TYR    SC3  604   1.079   0.317   3.016
    2ASN     BB  605   1.171  -0.126   3.247
    2ASN    SC1  606   1.176  -0.426   3.345
    3TYR     BB  607   0.855  -0.161   3.299
    3TYR    SC1  608   0.766   0.116   3.300
    3TYR    SC2  609   0.528   0.116   3.338
    3TYR    SC3  610   0.548   0.309   3.484
    1TYR     BB  611   4.099   7.083   4.391
    1TYR    SC1  612   3.898   7.283   4.519
    1TYR    SC2  613   3.769   7.326   4.320
    1TYR    SC3  614   3.564   7.333   4.451
    2ASN     BB  615   3.791   6.937   4.229
    2ASN    SC1  616   3.945   6.739   4.036
    3TYR     BB  617   3.619   6.991   3.962
    3TYR    SC1  618   3.384   7.125   4.071
    3TYR    SC2  619   3.238   7.177   3.887
    3TYR    SC3  620   3.044   7.117   4.021
    1TYR     BB  621   4.849   2.166   4.109
    1TYR    SC1  622   4.961   1.876   4.106
    1TYR    SC2  623   4.896   1.822   3.881
    1TYR    SC3  624   5.102   1.697   3.848
    2ASN     BB  625   5.007   2.189   3.767
    2ASN    SC1  626   4.884   2.470   3.691
    3TYR     BB  627   4.921   2.120   3.464
    3TYR    SC1  628   5.073   1.876   3.416
    3TYR    SC2  629   5.024   1.803   3.191
    3TYR    SC3  630   5.257   1.741   3.158
    1TYR     BB  631   6.097   5.395   5.977
    1TYR    SC1  632   5.982   5.488   6.251
    1TYR    SC2  633   6.194   5.522   6.360
    1TYR    SC3  634   6.107   5.718   6.474
    2ASN     BB  635   6.337   5.682   6.023
    2ASN    SC1  636   6.523   5.611   5.778
    3TYR     BB  637   6.622   5.729   6.168
    3TYR    SC1  638   6.541   5.878   6.404
    3TYR    SC2  639   6.741   5.926   6.531
    3TYR    SC3  640   6.659   6.149   6.582
    1TYR     BB  641   5.748   4.561  -0.261
    1TYR    SC1  642   5.684   4.821  -0.103
    1TYR    SC2  643   5.585   4.715   0.089
    1TYR    SC3  644   5.688   4.878   0.237
    2ASN     BB  645   5.869   4.434   0.073
    2ASN    SC1  646   5.913   4.134  -0.019
    3TYR     BB  647   5.739   4.289   0.330
    3TYR    SC1  648   5.730   4.508   0.521
    3TYR    SC2  649   5.635   4.423   0.725
    3TYR    SC3  650   5.794   4.552   0.857
    1TYR     BB  651   1.761   3.340   4.130
    1TYR    SC1  652   1.839   3.117   3.929
    1TYR    SC2  653   1.700   2.944   4.022
    1TYR    SC3  654   1.648   2.861   3.800
    2ASN     BB  655   1.410   3.213   4.077
    2ASN    SC1  656   1.276   3.387   4.305
    3TYR     BB  657   1.222   2.984   4.203
    3TYR    SC1  658   1.228   2.783   3.992
    3TYR    SC2  659   1.092   2.598   4.064
    3TYR    SC3  660   1.002   2.572   3.840
    1TYR     BB  661   1.801   1.885   0.107
    1TYR    SC1  662   1.875   2.088   0.332
    1TYR    SC2  663   1.794   1.956   0.517
    1TYR    SC3  664   1.981   2.029   0.654
    2ASN     BB  665   1.945   1.629   0.344
    2ASN    SC1  666   1.855   1.375   0.178
    3TYR     BB  667   1.838   1.451   0.590
    3TYR    SC1  668   1.955   1.591   0.817
    3TYR    SC2  669   1.888   1.474   1.017
    3TYR    SC3  670   2.109   1.505   1.113
    1TYR     BB  671   1.473   5.774   3.196
    1TYR    SC1  672   1.633   5.531   3.086
    1TYR    SC2  673   1.483   5.477   2.906
    1TYR    SC3  674   1.670   5.422   2.761
    2ASN     BB  675   1.438   5.867   2.832
    2ASN    SC1  676   1.233   6.104   2.877
    3TYR     BB  677   1.236   5.798   2.591
    3TYR    SC1  678   1.398   5.614   2.433
    3TYR    SC2  679   1.266   5.547   2.243
    3TYR    SC3  680   1.461   5.559   2.099
    1TYR     BB  681   6.670   2.837   6.440
    1TYR    SC1  682   6.560   3.103   6.323
    1TYR    SC2  683   6.660   3.082   6.105
    1TYR    SC3  684   6.461   3.177   6.002
    2ASN     BB  685   6.570   2.693   6.107
    2ASN    SC1  686   6.704   2.410   6.150
    3TYR     BB  687   6.702   2.662   5.815
    3TYR    SC1  688   6.560   2.867   5.665
    3TYR    SC2  689   6.644   2.863   5.439
    3TYR    SC3  690   6.419   2.898   5.352
    1TYR     BB  691   7.319   6.709  -0.319
    1TYR    SC1  692   7.564   6.840  -0.180
    1TYR    SC2  693   7.451   6.904   0.023
    1TYR    SC3  694   7.648   6.848   0.154
    2ASN     BB  695   7.256   6.555   0.019
    2ASN    SC1  696   6.973   6.432  -0.050
    3TYR     BB  697   7.104   6.638   0.291
    3TYR    SC1  698   7.328   6.704   0.465
    3TYR    SC2  699   7.237   6.771   0.677
    3TYR    SC3  700   7.414   6.652   0.794
    1TYR     BB  701   6.132   7.110   5.909
    1TYR    SC1  702   6.350   7.197   6.113
    1TYR    SC2  703   6.541   7.152   5.974
    1TYR    SC3  704   6.654   7.349   6.059
    2ASN     BB  705   6.342   7.303   5.662
    2ASN    SC1  706   6.184   7.211   5.404
    3TYR     BB  707   6.596   7.243   5.472
    3TYR    SC1  708   6.809   7.378   5.618
    3TYR    SC2  709   7.013   7.347   5.494
    3TYR    SC3  710   7.080   7.575   5.541
    1TYR     BB  711   4.450   1.728   1.754
    1TYR    SC1  712   4.181   1.757   1.600
    1TYR    SC2  713   4.272   1.854   1.400
    1TYR    SC3  714   4.116   1.728   1.264
    2ASN     BB  715   4.581   1.601   1.424
    2ASN    SC1  716   4.885   1.592   1.509
    3TYR     BB  717   4.705   1.729   1.156
    3TYR    SC1  718   4.481   1.705   0.971
    3TYR    SC2  719   4.551   1.796   0.759
    3TYR    SC3  720   4.436   1.618   0.641
    1TYR     BB  721   6.946   4.279   6.344
    1TYR    SC1  722   7.016   4.001   6.463
    1TYR    SC2  723   7.139   4.082   6.654
    1TYR    SC3  724   7.046   3.904   6.792
    2ASN     BB  725   6.865   4.370   6.701
    2ASN    SC1  726   6.823   4.679   6.649
    3TYR     BB  727   7.027   4.480   6.957
    3TYR    SC1  728   7.048   4.240   7.120
    3TYR    SC2  729   7.167   4.298   7.321
    3TYR    SC3  730   7.019   4.159   7.453
    1TYR     BB  731   0.474   5.980   3.262
    1TYR    SC1  732   0.383   5.758   3.064
    1TYR    SC2  733   0.285   5.905   2.900
    1TYR    SC3  734   0.368   5.764   2.720
    2ASN     BB  735   0.590   6.158   2.951
    2ASN    SC1  736   0.661   6.432   3.092
    3TYR     BB  737   0.461   6.356   2.732
    3TYR    SC1  738   0.428   6.176   2.505
    3TYR    SC2  739   0.331   6.304   2.325
    3TYR    SC3  740   0.473   6.191   2.164
    1TYR     BB  741   2.854   0.884   6.512
    1TYR    SC1  742   2.677   1.105   6.383
    1TYR    SC2  743   2.608   1.210   6.588
    1TYR    SC3  744   2.622   1.429   6.485
    2ASN     BB  745   2.979   1.165   6.730
    2ASN    SC1  746   3.145   0.982   6.928
    3TYR     BB  747   2.889   1.304   7.007
    3TYR    SC1  748   2.775   1.554   6.910
    3TYR    SC2  749   2.699   1.679   7.101
    3TYR    SC3  750   2.780   1.886   7.003
    1TYR     BB  751   0.874   4.374   5.561
    1TYR    SC1  752   0.611   4.286   5.703
    1TYR    SC2  753   0.542   4.505   5.774
    1TYR    SC3  754   0.310   4.450   5.728
    2ASN     BB  755   0.660   4.652   5.422
    2ASN    SC1  756   0.898   4.815   5.291
    3TYR     BB  757   0.569   4.947   5.515
    3TYR    SC1  758   0.292   4.898   5.593
    3TYR    SC2  759   0.201   5.108   5.668
    3TYR    SC3  760  -0.010   5.059   5.558
    1TYR     BB  761   4.433   6.833   5.524
    1TYR    SC1  762   4.575   6.783   5.252
    1TYR    SC2  763   4.472   6.965   5.132
    1TYR    SC3  764   4.681   7.009   5.015
    2ASN     BB  765   4.513   7.195   5.456
    2ASN    SC1  766   4.344   7.313   5.696
    3TYR     BB  767   4.376   7.440   5.298
    3TYR    SC1  768   4.542   7.455   5.060
    3TYR    SC2  769   4.457   7.634   4.923
    3TYR    SC3  770   4.684   7.702   4.867
    1TYR     BB  771   3.923   5.063   6.053
    1TYR    SC1  772   4.019   5.237   5.814
    1TYR    SC2  773   3.821   5.214   5.680
    1TYR    SC3  774   3.839   5.445   5.607
    2ASN     BB  775   3.599   5.251   6.010
    2ASN    SC1  776   3.431   5.076   6.214
    3TYR     BB  777   3.331   5.219   5.833
    3TYR    SC1  778   3.371   5.427   5.632
    3TYR    SC2  779   3.181   5.422   5.485
    3TYR    SC3  780   3.178   5.665   5.476
    1TYR     BB  781   1.795   2.610   3.067
    1TYR    SC1  782   1.894   2.442   2.825
    1TYR    SC2  783   1.863   2.612   2.658
    1TYR    SC3  784   2.066   2.542   2.545
    2ASN     BB  785   2.003   2.884   2.914
    2ASN    SC1  786   1.903   3.115   3.107
    3TYR     BB  787   1.962   3.114   2.692
    3TYR    SC1  788   2.110   3.002   2.467
    3TYR    SC2  789   2.093   3.159   2.284
    3TYR    SC3  790   2.325   3.119   2.225
    1TYR     BB  791   2.006   4.135   3.054
    1TYR    SC1  792   1.961   4.364   2.848
    1TYR    SC2  793   1.720   4.357   2.851
    1TYR    SC3  794   1.711   4.600   2.834
    2ASN     BB  795   1.731   4.306   3.247
    2ASN    SC1  796   1.697   4.080   3.466
    3TYR     BB  797   1.408   4.297   3.254
    3TYR    SC1  798   1.342   4.546   3.118
    3TYR    SC2  799   1.102   4.562   3.110
    3TYR    SC3  800   1.113   4.800   3.158
    1TYR     BB  801   7.581   1.178   6.978
    1TYR    SC1  802   7.304   1.140   6.841
    1TYR    SC2  803   7.199   1.020   7.020
    1TYR    SC3  804   6.990   1.135   6.979
    2ASN     BB  805   7.375   1.265   7.282
    2ASN    SC1  806   7.617   1.274   7.486
    3TYR     BB  807   7.236   1.105   7.525
    3TYR    SC1  808   6.956   1.115   7.446
    3TYR    SC2  809   6.829   0.999   7.615
    3TYR    SC3  810   6.653   1.167   7.602
    1TYR     BB  811   2.778   1.768   5.615
    1TYR    SC1  812   2.851   1.820   5.317
    1TYR    SC2  813   2.961   1.609   5.278
    1TYR    SC3  814   2.867   1.599   5.054
    2ASN     BB  815   2.676   1.427   5.491
    2ASN    SC1  816   2.627   1.300   5.777
    3TYR     BB  817   2.821   1.143   5.440
    3TYR    SC1  818   2.840   1.141   5.149
    3TYR    SC2  819   2.947   0.935   5.085
    3TYR    SC3  820   2.796   0.912   4.896
    1TYR     BB  821   5.811   0.929   0.475
    1TYR    SC1  822   5.619   0.753   0.305
    1TYR    SC2  823   5.789   0.634   0.183
    1TYR    SC3  824   5.658   0.430   0.194
    2ASN     BB  825   6.005   0.608   0.519
    2ASN    SC1  826   6.256   0.739   0.660
    3TYR     BB  827   6.234   0.449   0.358
    3TYR    SC1  828   6.080   0.232   0.240
    3TYR    SC2  829   6.233   0.096   0.112
    3TYR    SC3  830   6.122  -0.106   0.188
    1TYR     BB  831   5.258   6.537   0.438
    1TYR    SC1  832   5.223   6.485   0.133
    1TYR    SC2  833   5.447   6.408   0.091
    1TYR    SC3  834   5.364   6.242  -0.066
    2ASN     BB  835   5.438   6.205   0.435
    2ASN    SC1  836   5.544   6.221   0.732
    3TYR     BB  837   5.738   6.101   0.381
    3TYR    SC1  838   5.711   5.984   0.115
    3TYR    SC2  839   5.927   5.898   0.052
    3TYR    SC3  840   5.823   5.702  -0.047
    1TYR     BB  841   3.595   7.395   7.836
    1TYR    SC1  842   3.292   7.326   7.816
    1TYR    SC2  843   3.277   7.334   7.576
    1TYR    SC3  844   3.124   7.145   7.576
    2ASN     BB  845   3.631   7.151   7.551
    2ASN    SC1  846   3.935   7.211   7.492
    3TYR     BB  847   3.613   7.160   7.229
    3TYR    SC1  848   3.354   7.035   7.183
    3TYR    SC2  849   3.317   7.031   6.945
    3TYR    SC3  850   3.221   6.808   6.960
    1TYR     BB  851   3.312   1.045   2.790
    1TYR    SC1  852   3.569   1.221   2.798
    1TYR    SC2  853   3.714   1.066   2.685
    1TYR    SC3  854   3.823   1.248   2.568
    2ASN     BB  855   3.416   0.977   2.434
    2ASN    SC1  856   3.200   0.753   2.378
    3TYR     BB  857   3.607   0.769   2.281
    3TYR    SC1  858   3.837   0.937   2.218
    3TYR    SC2  859   3.997   0.801   2.101
    3TYR    SC3  860   4.048   0.985   1.950
    1TYR     BB  861   5.911  -0.091   7.387
    1TYR    SC1  862   5.810   0.162   7.537
    1TYR    SC2  863   5.758   0.292   7.341
    1TYR    SC3  864   5.561   0.383   7.451
    2ASN     BB  865   5.608  -0.036   7.169
    2ASN    SC1  866   5.682  -0.255   6.952
    3TYR     BB  867   5.537   0.136   6.905
    3TYR    SC1  868   5.380   0.353   7.020
    3TYR    SC2  869   5.314   0.497   6.839
    3TYR    SC3  870   5.094   0.525   6.937
    1TYR     BB  871   4.336   0.497   6.918
    1TYR    SC1  872   4.131   0.333   6.750
    1TYR    SC2  873   4.132   0.476   6.556
    1TYR    SC3  874   4.117   0.283   6.410
    2ASN     BB  875   4.528   0.517   6.594
    2ASN    SC1  876   4.745   0.723   6.695
    3TYR     BB  877   4.532   0.708   6.334
    3TYR    SC1  878   4.397   0.541   6.138
    3TYR    SC2  879   4.388   0.664   5.931
    3TYR    SC3  880   4.437   0.463   5.805
    1TYR     BB  881   2.084   5.141   2.890
    1TYR    SC1  882   2.227   4.980   3.115
    1TYR    SC2  883   2.452   5.042   3.056
    1TYR    SC3  884   2.513   5.055   3.290
    2ASN     BB  885   2.326   5.415   2.985
    2ASN    SC1  886   2.254   5.608   2.745
    3TYR     BB  887   2.626   5.500   2.905
    3TYR    SC1  888   2.774   5.414   3.141
    3TYR    SC2  889   3.006   5.469   3.105
    3TYR    SC3  890   3.029   5.538   3.336
    1TYR     BB  891   6.537   4.143   0.773
    1TYR    SC1  892   6.843   4.198   0.777
    1TYR    SC2  893   6.832   4.424   0.693
    1TYR    SC3  894   7.011   4.491   0.842
    2ASN     BB  895   6.510   4.489   0.921
    2ASN    SC1  896   6.195   4.511   0.900
    3TYR     BB  897   6.493   4.791   0.810
    3TYR    SC1  898   6.762   4.887   0.866
    3TYR    SC2  899   6.775   5.116   0.791
    3TYR    SC3  900   6.905   5.177   0.986
    1TYR     BB  901   6.110   2.024   5.740
    1TYR    SC1  902   5.943   2.131   5.500
    1TYR    SC2  903   6.125   2.145   5.343
    1TYR    SC3  904   5.980   2.070   5.163
    2ASN     BB  905   6.266   1.798   5.481
    2ASN    SC1  906   6.493   1.682   5.669
    3TYR     BB  907   6.511   1.814   5.272
    3TYR    SC1  908   6.368   1.850   5.021
    3TYR    SC2  909   6.533   1.866   4.845
    3TYR    SC3  910   6.394   1.731   4.699
    1TYR     BB  911   5.586   2.920   4.882
    1TYR    SC1  912   5.713   3.148   4.712
    1TYR    SC2  913   5.848   3.008   4.571
    1TYR    SC3  914   5.803   3.151   4.380
    2ASN     BB  915   5.546   2.747   4.549
    2ASN    SC1  916   5.452   2.469   4.666
    3TYR     BB  917   5.724   2.557   4.360
    3TYR    SC1  918   5.803   2.743   4.150
    3TYR    SC2  919   5.940   2.621   3.993
    3TYR    SC3  920   5.834   2.735   3.807
    1TYR     BB  921   7.213   2.830   7.093
    1TYR    SC1  922   7.367   2.601   7.236
    1TYR    SC2  923   7.424   2.725   7.435
    1TYR    SC3  924   7.388   2.528   7.572
    2ASN     BB  925   7.060   2.889   7.432
    2ASN    SC1  926   6.912   3.158   7.356
    3TYR     BB  927   7.134   3.056   7.697
    3TYR    SC1  928   7.222   2.844   7.876
    3TYR    SC2  929   7.284   2.946   8.085
    3TYR    SC3  930   7.182   2.763   8.208
    1TYR     BB  931   6.884   6.132   4.248
    1TYR    SC1  932   6.607   6.232   4.350
    1TYR    SC2  933   6.578   6.067   4.522
    1TYR    SC3  934   6.478   6.232   4.669
    2ASN     BB  935   6.965   6.102   4.615
    2ASN    SC1  936   7.242   5.954   4.577
    3TYR     BB  937   6.929   5.881   4.847
    3TYR    SC1  938   6.708   5.994   5.000
    3TYR    SC2  939   6.662   5.843   5.182
    3TYR    SC3  940   6.626   6.031   5.332
    1TYR     BB  941   4.930   1.578   4.712
    1TYR    SC1  942   5.134   1.389   4.853
    1TYR    SC2  943   5.004   1.187   4.832
    1TYR    SC3  944   5.206   1.058   4.789
    2ASN     BB  945   4.899   1.297   4.463
    2ASN    SC1  946   4.656   1.420   4.303
    3TYR     BB  947   4.725   1.027   4.433
    3TYR    SC1  948   4.923   0.824   4.499
    3TYR    SC2  949   4.814   0.610   4.483
    3TYR    SC3  950   5.012   0.513   4.380
    1TYR     BB  951   3.697   4.180   2.488
    1TYR    SC1  952   3.965   4.156   2.644
    1TYR    SC2  953   3.948   3.921   2.694
    1TYR    SC3  954   4.187   3.893   2.659
    2ASN     BB  955   3.806   3.858   2.325
    2ASN    SC1  956   3.535   3.803   2.172
    3TYR     BB  957   3.783   3.543   2.388
    3TYR    SC1  958   4.053   3.482   2.478
    3TYR    SC2  959   4.061   3.248   2.532
    3TYR    SC3  960   4.282   3.229   2.433
    1TYR     BB  961   0.504   6.282   4.312
    1TYR    SC1  962   0.355   6.331   4.043
    1TYR    SC2  963   0.518   6.481   3.948
    1TYR    SC3  964   0.484   6.384   3.728
    2ASN     BB  965   0.809   6.250   4.094
    2ASN    SC1  966   1.019   6.239   4.330
    3TYR     BB  967   1.029   6.449   3.968
    3TYR    SC1  968   0.945   6.458   3.689
    3TYR    SC2  969   1.096   6.604   3.572
    3TYR    SC3  970   1.097   6.455   3.380
    1TYR     BB  971   0.634   1.219   7.201
    1TYR    SC1  972   0.736   1.508   7.147
    1TYR    SC2  973   0.954   1.447   7.065
    1TYR    SC3  974   0.945   1.625   6.900
    2ASN     BB  975   0.788   1.144   6.865
    2ASN    SC1  976   0.752   0.830   6.880
    3TYR     BB  977   1.079   1.060   6.753
    3TYR    SC1  978   1.169   1.310   6.635
    3TYR    SC2  979   1.388   1.272   6.543
    3TYR    SC3  980   1.334   1.408   6.349
    1TYR     BB  981   3.037   4.511   6.641
    1TYR    SC1  982   3.113   4.441   6.934
    1TYR    SC2  983   3.296   4.597   6.954
    1TYR    SC3  984   3.233   4.646   7.184
    2ASN     BB  985   3.080   4.868   6.754
    2ASN    SC1  986   3.055   4.998   6.467
    3TYR     BB  987   3.323   5.078   6.779
    3TYR    SC1  988   3.369   5.079   7.066
    3TYR    SC2  989   3.550   5.232   7.111
    3TYR    SC3  990   3.436   5.313   7.310
    1TYR     BB  991   4.830   4.453   5.519
    1TYR    SC1  992   5.018   4.616   5.332
    1TYR    SC2  993   5.074   4.436   5.182
    1TYR    SC3  994   5.068   4.588   4.993
    2ASN     BB  995   4.694   4.313   5.197
    2ASN    SC1  996   4.513   4.090   5.330
    3TYR     BB  997   4.766   4.070   4.997
    3TYR    SC1  998   4.888   4.214   4.775
    3TYR    SC2  999   4.952   4.051   4.609
    3TYR    SC3 1000   4.879   4.199   4.431
    4W        W 1001   0.349   1.633   2.100
    5W        W 1002   4.010   5.867   1.494
    6W        W 1003   5.106   7.621   1.686
    7W        W 1004   3.772   4.299   0.403
    8W        W 1005   5.683   0.072   4.002
    9W        W 1006   2.537   3.319   3.106
   10W        W 1007   3.102   5.951   3.455
   11W        W 1008   3.373   7.676   5.025
   12W        W 1009   3.635   6.731   2.684
   13W        W 1010   3.682   2.669   5.460
   14W        W 1011   2.972   7.428   4.929
   15W        W 1012   7.158   3.321   3.628
   16W        W 1013   7.256   3.126   1.905
   17W        W 1014   4.479   7.132   6.676
   18W        W 1015   3.548   2.037   0.913
   19W        W 1016   4.614   4.267   3.949
   20W        W 1017   4.204   3.886   1.026
   21W        W 1018   3.255   5.763   3.879
   22W        W 1019   2.552   6.182   3.404
   23W        W 1020   3.957   5.410   1.281
   24W        W 1021   0.331   3.089   3.924
   25W        W 1022   1.975   6.238   5.081
   26W        W 1023   5.364   2.299   5.526
   27W        W 1024   2.937   0.037   5.008
   28W        W 1025   1.453   4.276   3.805
   29W        W 1026   3.032   2.144   5.556
   30W        W 1027   0.429   6.932   3.776
   31W        W 1028   1.095   7.587   5.519
   32W        W 1029   7.929   1.101   3.258
   33W        W 1030   0.180   4.842   4.244
   34W        W 1031   6.949   4.572   2.275
   35W        W 1032   7.654   6.841   5.972
   36W        W 1033   4.354   0.291   4.467
   37W        W 1034   3.860   6.313   1.114
   38W        W 1035   3.545   3.352   0.603
   39W        W 1036   1.440   7.637   5.136
   40W        W 1037   5.533   0.490   3.665
   41W        W 1038   2.251   0.633   4.073
   42W        W 1039   3.736   4.560   6.753
   43W        W 1040   7.851   2.797   3.902
   44W        W 1041   4.599   2.116   6.133
   45W        W 1042   4.568   6.469   2.461
   46W        W 1043   5.681   4.462   4.970
   47W        W 1044   5.676   1.433   2.966
   48W        W 1045   4.819   6.067   6.364
   49W        W 1046   0.606   2.177   6.213
   50W        W 1047   4.639   0.850   7.747
   51W        W 1048   1.119   5.630   1.968
   52W        W 1049   2.617   7.080   0.519
   53W        W 1050   3.481   0.246   1.393
   54W        W 1051   1.407   0.692   3.619
   55W        W 1052   3.987   7.321   3.032
   56W        W 1053   1.855   6.457   3.898
   57W        W 1054   4.050   5.464   2.603
   58W        W 1055   2.220   4.370   2.646
   59W        W 1056   0.387   1.607   7.962
   60W        W 1057   1.261   6.947   0.428
   61W        W 1058   2.307   7.508   1.384
   62W        W 1059   6.442   3.540   3.828
   63W        W 1060   3.367   3.532   4.367
   64W        W 1061   3.230   4.191   0.394
   65W        W 1062   4.803   0.282   2.107
   66W        W 1063   3.462   3.638   5.146
   67W        W 1064   7.309   0.266   0.194
   68W        W 1065   7.424   3.158   0.769
   69W        W 1066   5.880   5.100   7.157
   70W        W 1067   6.438   4.924   7.950
   71W        W 1068   1.608   1.490   1.416
   72W        W 1069   0.024   0.654   7.928
   73W        W 1070   6.084   2.032   2.232
   74W        W 1071   5.349   6.095   3.993
   75W        W 1072   1.816   2.172   7.150
   76W        W 1073   5.173   2.658   1.706
   77W        W 1074   6.188   7.690   0.733
   78W        W 1075   7.814   7.422   5.045
   79W        W 1076   1.797   0.656   7.022
   80W        W 1077   0.259   7.046   0.824
   81W        W 1078   5.650   7.086   2.695
   82W        W 1079   6.056   5.766   5.520
   83W        W 1080   5.269   3.839   4.784
   84W        W 1081   7.915   3.693   5.877
   85W        W 1082   2.142   3.523   0.605
   86W        W 1083   5.241   5.224   4.271
   87W        W 1084   2.032   0.198   0.976
   88W        W 1085   5.922   4.214   1.251
   89W        W 1086   2.383   2.228   2.244
   90W        W 1087   6.591   0.284   2.179
   91W        W 1088   0.546   4.305   3.982
   92W        W 1089   2.239   4.351   6.496
   93W        W 1090   6.496   5.044   1.240
   94W        W 1091   0.275   5.572   1.494
   95W        W 1092   7.405   3.890   1.145
   96W        W 1093   3.515   4.667   4.942
   97W        W 1094   3.714   5.802   5.639
   98W        W 1095   6.165   6.953   1.111
   99W        W 1096   2.626   4.308   5.785
  100W        W 1097   7.728   0.116   7.149
  101W        W 1098   2.906   4.490   0.247
  102W        W 1099   3.678   0.463   4.635
  103W        W 1100   3.544   5.250   4.852
  104W        W 1101   7.724   7.128   1.245
  105W        W 1102   4.011   0.806   7.564
  106W        W 1103   0.266   3.307   6.067
  107W        W 1104   5.281   7.196   5.432
  108W        W 1105   0.853   7.400   1.141
  109W        W 1106   2.052   0.513   6.055
  110W        W 1107   3.922   2.298   4.099
  111W        W 1108   0.770   0.423   0.434
  112W        W 1109   2.607   7.020   6.969
  113W        W 1110   2.810   7.885   0.487
  114W        W 1111   3.742   4.648   2.876
  115W        W 1112   3.497   4.702   7.377
  116W        W 1113   2.997   4.317   1.667
  117W        W 1114   1.083   6.169   5.039
  118W        W 1115   6.865   3.091   5.000
  119W        W 1116   3.990   4.941   5.149
  120W        W 1117   5.907   7.058   7.581
  121W        W 1118   6.021   3.539   3.652
  122W        W 1119   2.808   2.563   2.111
  123W        W 1120   4.883   2.466   7.680
  124W        W 1121   7.565   5.936   3.753
  125W        W 1122   4.262   7.625   6.543
  126W        W 1123   4.190   2.869   5.895
  127W        W 1124   7.276   5.425   2.118
  128W        W 1125   6.424   7.762   5.954
  129W        W 1126   6.511   6.696   6.796
  130W        W 1127   0.846   5.585   3.603
  131W        W 1128   4.572   5.569   2.581
  132W        W 1129   3.491   7.120   0.669
  133W        W 1130   3.830   6.778   4.809
  134W        W 1131   4.149   3.775   0.503
  135W        W 1132   1.068   1.917   5.980
  136W        W 1133   5.990   6.957   3.045
  137W        W 1134   3.216   4.376   2.811
  138W        W 1135   0.845   5.393   2.613
  139W        W 1136   2.615   3.713   1.550
  140W        W 1137   4.290   5.252   2.235
  141W        W 1138   2.818   0.909   4.513
  142W        W 1139   7.292   5.438   1.135
  143W        W 1140   4.900   2.969   1.462
  144W        W 1141   4.043   3.164   1.239
  145W        W 1142   2.314   6.966   3.819
  146W        W 1143   5.000   7.333   7.344
  147W        W 1144   6.190   6.168   2.866
  148W        W 1145   0.307   4.777   6.065
  149W        W 1146   0.049   0.664   0.817
  150W        W 1147   4.805   5.036   6.253
  151W        W 1148   3.710   7.655   3.799
  152W        W 1149   4.274   3.116   2.080
  153W        W 1150   0.018   3.626   5.211
  154W        W 1151   7.280   1.793   5.959
  155W        W 1152   2.590   4.619   1.098
  156W        W 1153   0.505   5.802   6.467
  157W        W 1154   7.009   0.626   1.518
  158W        W 1155   1.273   0.657   6.567
  159W        W 1156   7.214   5.267   4.884
  160W        W 1157   0.325   6.638   1.251
  161W        W 1158   4.013   7.430   1.986
  162W        W 1159   1.334   5.273   7.004
  163W        W 1160   2.861   6.097   1.457
  164W        W 1161   2.192   5.954   2.613
  165W        W 1162   7.281   6.851   6.945
  166W        W 1163   3.774   1.376   4.335
  167W        W 1164   3.628   3.244   0.059
  168W        W 1165   0.347   7.146   3.114
  169W        W 1166   3.678   3.672   0.904
  170W        W 1167   7.741   0.449   0.390
  171W        W 1168   1.469   6.671   5.382
  172W        W 1169   2.608   7.013   1.645
  173W        W 1170   6.324   2.586   2.869
  174W        W 1171   6.121   1.236   7.826
  175W        W 1172   7.235   4.956   6.943
  176W        W 1173   3.061   4.133   3.268
  177W        W 1174   3.865   0.144   3.816
  178W        W 1175   7.603   5.308   4.528
  179W        W 1176   3.100   4.999   4.788
  180W        W 1177   2.201   3.642   2.003
  181W        W 1178   0.800   1.759   3.437
  182W        W 1179   3.677   4.566   4.058
  183W        W 1180   3.060   1.377   1.006
  184W        W 1181   1.439   3.755   2.342
  185W        W 1182   7.406   4.118   1.879
  186W        W 1183   4.317   0.499   1.908
  187W        W 1184   2.654   3.201   0.720
  188W        W 1185   1.345   2.618   2.437
  189W        W 1186   0.190   2.337   5.226
  190W        W 1187   2.368   0.020   4.519
  191W        W 1188   2.731   6.631   0.322
  192W        W 1189   0.428   1.998   1.685
  193W        W 1190   5.736   6.311   2.823
  194W        W 1191   1.161   0.086   5.427
  195W        W 1192   5.285   7.593   5.142
  196W        W 1193   5.973   2.274   4.878
  197W        W 1194   6.196   7.507   4.890
  198W        W 1195   2.242   4.833   0.719
  199W        W 1196   5.497   6.915   4.538
  200W        W 1197   0.298   4.821   0.245
  201W        W 1198   3.681   2.474   1.733
  202W        W 1199   1.186   3.504   2.720
  203W        W 1200   2.179   5.064   7.217
  204W        W 1201   4.348   6.632   6.331
  205W        W 1202   0.068   0.328   2.342
  206W        W 1203   5.498   6.883   4.043
  207W        W 1204   6.524   1.236   6.236
  208W        W 1205   5.849   0.071   4.560
  209W        W 1206   7.408   6.166   4.959
  210W        W 1207   0.698   6.968   1.731
  211W        W 1208   0.445   4.265   0.421
  212W        W 1209   2.303   2.590   3.904
  213W        W 1210   0.907   7.773   0.823
  214W        W 1211   3.565   0.598   0.972
  215W        W 1212   7.556   5.320   3.163
  216W        W 1213   7.566   2.429   7.824
  217W        W 1214   3.559   1.697   5.985
  218W        W 1215   6.247   7.451   7.550
  219W        W 1216   3.618   0.917   3.868
  220W        W 1217   1.347   4.575   1.821
  221W        W 1218   6.745   7.306   0.052
  222W        W 1219   6.058   3.145   0.224
  223W        W 1220   2.843   6.163   4.726
  224W        W 1221   1.682   5.368   1.491
  225W        W 1222   3.664   4.151   3.681
  226W        W 1223   3.002   6.463   5.114
  227W        W 1224   7.841   5.773   4.474
  228W        W 1225   7.317   7.251   0.731
  229W        W 1226   2.995   1.542   6.545
  230W        W 1227   5.791   3.202   6.485
  231W        W 1228   7.851   2.088   6.810
  232W        W 1229   1.278   4.324   5.223
  233W        W 1230   1.768   4.770   0.877
  234W        W 1231   4.800   6.174   2.801
  235W        W 1232   2.117   1.289   4.259
  236W        W 1233   0.995   2.283   0.036
  237W        W 1234   1.393   3.615   0.220
  238W        W 1235   2.627   0.058   3.162
  239W        W 1236   6.572   3.457   4.822
  240W        W 1237   5.078   0.628   5.918
  241W        W 1238   2.301   7.087   5.753
  242W        W 1239   1.257   2.988   3.634
  243W        W 1240   1.958   2.741   4.232
  244W        W 1241   1.209   3.848   3.757
  245W        W 1242   1.171   5.164   0.345
  246W        W 1243   6.131   1.084   5.860
  247W        W 1244   6.559   4.297   3.034
  248W        W 1245   1.930   4.403   3.622
  249W        W 1246   1.653   2.963   7.762
  250W        W 1247   7.497   7.503   2.703
  251W        W 1248   0.845   0.004   1.893
  252W        W 1249   3.685   4.593   1.142
  253W        W 1250   2.903   4.153   4.253
  254W        W 1251   4.763   6.233   1.425
  255W        W 1252   3.548   0.353   4.147
  256W        W 1253   2.900   7.568   1.425
  257W        W 1254   1.814   4.223   0.816
  258W        W 1255   2.405   3.182   5.125
  259W        W 1256   1.022   4.864   2.682
  260W        W 1257   2.301   1.283   3.573
  261W        W 1258   5.328   7.070   1.319
  262W        W 1259   5.922   4.946   4.852
  263W        W 1260   5.649   3.354   2.642
  264W        W 1261   3.528   6.732   6.577
  265W        W 1262   5.659   4.976   2.782
  266W        W 1263   7.641   5.803   3.075
  267W        W 1264   5.314   0.911   3.796
  268W        W 1265   5.943   4.663   6.881
  269W        W 1266   7.103   5.197   3.607
  270W        W 1267   4.036   5.543   3.924
  271W        W 1268   0.108   5.363   5.096
  272W        W 1269   7.672   6.207   4.515
  273W        W 1270   4.218   6.098   3.471
  274W        W 1271   1.375   3.430   1.164
  275W        W 1272   7.044   7.394   2.370
  276W        W 1273   1.383   5.875   3.643
  277W        W 1274   5.422   3.768   7.884
  278W        W 1275   4.435   3.823   1.570
  279W        W 1276   5.675   6.250   7.689
  280W        W 1277   2.804   4.582   3.176
  281W        W 1278   4.342   0.358   3.837
  282W        W 1279   4.244   0.539   5.236
  283W        W 1280   3.775   3.827   1.334
  284W        W 1281   1.353   5.632   0.531
  285W        W 1282   0.524   2.258   3.431
  286W        W 1283   3.545   7.783   0.149
  287W        W 1284   0.087   7.329   0.257
  288W        W 1285   0.114   5.180   2.143
  289W        W 1286   2.731   4.151   6.901
  290W        W 1287   0.792   5.281   1.646
  291W        W 1288   0.422   5.714   0.978
  292W        W 1289   4.647   7.242   4.709
  293W        W 1290   7.841   4.210   2.193
  294W        W 1291   2.805   1.992   3.466
  295W        W 1292   6.557   0.721   1.160
  296W        W 1293   1.979   2.104   6.411
  297W        W 1294   3.150   3.798   1.634
  298W        W 1295   4.848   2.907   0.667
  299W        W 1296   2.481   2.362   6.005
  300W        W 1297   6.224   0.691   6.822
  301W        W 1298   1.758   0.699   6.406
  302W        W 1299   0.524   7.235   5.057
  303W        W 1300   6.416   6.936   7.574
  304W        W 1301   7.141   6.937   4.678
  305W        W 1302   4.635   4.146   6.694
  306W        W 1303   2.712   4.367   2.746
  307W        W 1304   5.425   3.722   2.390
  308W        W 1305   6.697   4.696   3.271
  309W        W 1306   5.016   5.636   1.548
  310W        W 1307   7.176   0.692   0.412
  311W        W 1308   1.617   1.242   2.597
  312W        W 1309   3.105   0.486   4.764
  313W        W 1310   7.241   7.263   5.065
  314W        W 1311   2.191   7.073   3.340
  315W        W 1312   6.899   1.528   7.660
  316W        W 1313   0.805   4.184   0.003
  317W        W 1314   5.704   5.121   3.873
  318W        W 1315   0.520   2.210   6.938
  319W        W 1316   2.932   0.801   0.370
  320W        W 1317   7.000   5.390   5.643
  321W        W 1318   2.837   5.883   7.389
  322W        W 1319   7.173   3.649   0.718
  323W        W 1320   6.816   7.096   0.521
  324W        W 1321   4.889   1.207   6.940
  325W        W 1322   6.705   3.832   0.546
  326W        W 1323   6.985   6.398   1.029
  327W        W 1324   1.004   5.143   2.218
  328W        W 1325   3.324   5.958   2.361
  329W        W 1326   6.530   3.909   6.745
  330W        W 1327   2.133   6.592   5.974
  331W        W 1328   0.997   2.101   5.539
  332W        W 1329   1.283   4.261   2.374
  333W        W 1330   2.328   1.500   4.662
  334W        W 1331   6.342   1.268   6.690
  335W        W 1332   1.301   6.551   2.309
  336W        W 1333   0.777   1.492   0.827
  337W        W 1334   3.382   1.587   2.877
  338W        W 1335   7.406   4.704   5.392
  339W        W 1336   6.076   0.833   5.340
  340W        W 1337   2.768   3.633   7.114
  341W        W 1338   7.273   3.416   1.170
  342W        W 1339   6.681   7.391   7.347
  343W        W 1340   5.999   6.606   7.491
  344W        W 1341   1.627   0.717   2.411
  345W        W 1342   2.497   5.124   1.054
  346W        W 1343   5.570   2.933   1.837
  347W        W 1344   5.911   3.237   3.193
  348W        W 1345   7.768   3.432   4.713
  349W        W 1346   4.981   5.828   7.675
  350W        W 1347   4.575   2.868   4.304
  351W        W 1348   0.994   4.818   1.317
  352W        W 1349   4.481   7.411   7.134
  353W        W 1350   2.646   5.930   6.748
  354W        W 1351   6.496   1.454   1.899
  355W        W 1352   5.963   5.419   1.042
  356W        W 1353   4.818   5.202   6.966
  357W        W 1354   5.537   3.717   0.458
  358W        W 1355   4.323   2.836   0.552
  359W        W 1356   0.886   5.340   6.281
  360W        W 1357   4.573   1.429   2.257
  361W        W 1358   0.306   1.856   4.245
  362W        W 1359   7.326   2.967   4.964
  363W        W 1360   5.152   1.309   0.457
  364W        W 1361   4.337   3.721   2.079
  365W        W 1362   2.805   0.133   5.663
  366W        W 1363   6.462   2.244   2.499
  367W        W 1364   2.413   5.702   5.113
  368W        W 1365   2.356   4.649   0.183
  369W        W 1366   2.193   3.020   0.659
  370W        W 1367   3.073   3.541   4.860
  371W        W 1368   7.972   4.131   5.298
  372W        W 1369   6.039   6.093   7.368
  373W        W 1370   7.456   5.787   1.422
  374W        W 1371   5.332   1.206   5.178
  375W        W 1372   5.119   3.721   2.772
  376W        W 1373   7.500   3.732   7.005
  377W        W 1374   4.362   4.703   3.421
  378W        W 1375   4.862   0.087   1.302
  379W        W 1376   1.016   1.658   3.062
  380W        W 1377   6.397   4.930   5.059
  381W        W 1378   0.573   6.303   0.535
  382W        W 1379   1.921   5.198   1.019
  383W        W 1380   2.253   4.285   2.069
  384W        W 1381   0.523   0.084   2.524
  385W        W 1382   7.573   0.969   0.532
  386W        W 1383   5.668   7.368   6.679
  387W        W 1384   0.892   2.859   2.310
  388W        W 1385   1.603   4.785   3.774
  389W        W 1386   3.928   5.259   4.369
  390W        W 1387   6.265   3.953   2.164
  391W        W 1388   3.423   1.148   3.498
  392W        W 1389   0.241   3.307   1.316
  393W        W 1390   0.183   1.030   1.247
  394W        W 1391   0.825   0.474   5.265
  395W        W 1392   5.192   6.883   7.365
  396W        W 1393   5.184   4.770   1.939
  397W        W 1394   5.576   7.464   1.775
  398W        W 1395   0.058   2.030   4.773
  399W        W 1396   2.681   4.176   7.386
  400W        W 1397   1.168   3.771   4.365
  401W        W 1398   2.601   7.345   6.069
  402W        W 1399   3.601   2.142   5.778
  403W        W 1400   0.563   6.180   0.034
  404W        W 1401   0.615   1.893   5.790
  405W        W 1402   3.021   6.917   3.273
  406W        W 1403   2.204   3.416   0.101
  407W        W 1404   7.823   1.835   5.082
  408W        W 1405   4.694   0.868   1.349
  409W        W 1406   3.953   1.633   4.995
  410W        W 1407   6.228   2.115   7.354
  411W        W 1408   0.166   5.804   4.064
  412W        W 1409   2.339   0.609   0.742
  413W        W 1410   3.541   1.808   0.365
  414W        W 1411   6.492   5.083   5.554
  415W        W 1412   0.225   6.259   7.246
  416W        W 1413   7.648   1.659   2.228
  417W        W 1414   2.513   1.885   7.289
  418W        W 1415   2.496   1.095   3.080
  419W        W 1416   0.595   3.849   4.288
  420W        W 1417   6.042   1.134   3.217
  421W        W 1418   3.435   2.324   4.412
  422W        W 1419   4.477   3.244   7.145
  423W        W 1420   2.804   5.000   7.134
  424W        W 1421   5.180   3.234   1.965
  425W        W 1422   3.374   6.613   3.132
  426W        W 1423   7.344   7.811   6.781
  427W        W 1424   0.737   2.109   1.248
  428W        W 1425   4.272   7.015   3.315
  429W        W 1426   5.991   0.370   6.393
  430W        W 1427   5.310   2.779   5.362
  431W        W 1428   2.167   5.026   7.731
  432W        W 1429   6.254   6.507   4.976
  433W        W 1430   0.761   1.889   0.418
  434W        W 1431   2.568   3.468   6.353
  435W        W 1432   7.669   4.637   0.673
  436W        W 1433   6.150   4.390   4.087
  437W        W 1434   4.450   6.418   4.240
  438W        W 1435   4.368   6.712   2.046
  439W        W 1436   4.959   3.917   5.607
  440W        W 1437   6.680   1.515   3.000
  441W        W 1438   0.909   0.784   7.552
  442W        W 1439   1.139   0.905   1.385
  443W        W 1440   3.135   4.586   7.784
  444W        W 1441   5.608   4.952   0.798
  445W        W 1442   1.467   5.549   4.738
  446W        W 1443   2.707   0.257   1.550
  447W        W 1444   1.401   0.343   7.024
  448W        W 1445   5.050   7.122   0.900
  449W        W 1446   1.652   5.783   5.755
  450W        W 1447   6.014   3.418   5.597
  451W        W 1448   5.090   3.496   3.901
  452W        W 1449   5.933   7.313   7.178
  453W        W 1450   0.423   3.184   2.254
  454W        W 1451   5.206   1.158   3.101
  455W        W 1452   7.671   3.454   3.286
  456W        W 1453   0.360   0.848   7.618
  457W        W 1454   1.492   2.380   7.774
  458W        W 1455   6.914   3.731   3.693
  459W        W 1456   6.665   6.398   5.403
  460W        W 1457   7.928   0.867   6.951
  461W        W 1458   4.297   1.466   3.131
  462W        W 1459   0.487   6.888   0.434
  463W        W 1460   2.757   4.564   4.506
  464W        W 1461   0.201   7.539   6.349
  465W        W 1462   1.409   7.471   2.213
  466W        W 1463   1.523   3.008   5.442
  467W        W 1464   4.673   2.041   7.892
  468W        W 1465   2.859   1.881   4.174
  469W        W 1466   0.198   1.316   1.688
  470W        W 1467   6.652   7.714   3.202
  471W        W 1468   6.265   7.347   0.304
  472W        W 1469   2.531   3.557   4.853
  473W        W 1470   1.299   3.182   0.545
  474W        W 1471   1.273   1.200   2.197
  475W        W 1472   7.431   1.580   4.839
  476W        W 1473   7.412   3.771   5.062
  477W        W 1474   0.548   4.539   4.546
  478W        W 1475   0.391   3.199   3.101
  479W        W 1476   4.249   7.158   6.207
  480W        W 1477   4.071   4.230   5.690
  481W        W 1478   3.950   2.589   7.550
  482W        W 1479   7.042   2.932   0.499
  483W        W 1480   4.685   3.375   1.712
  484W        W 1481   2.995   7.596   5.450
  485W        W 1482   4.314   4.547   4.889
  486W        W 1483   6.508   7.541   1.735
  487W        W 1484   4.688   3.956   2.447
  488W        W 1485   6.934   7.511   5.920
  489W        W 1486   5.246   2.577   1.201
  490W        W 1487   2.135   5.526   1.287
  491W        W 1488   6.566   3.867   3.310
  492W        W 1489   2.219   2.691   5.617
  493W        W 1490   1.810   1.959   3.307
  494W        W 1491   2.555   5.326   7.457
  495W        W 1492   2.006   2.279   5.823
  496W        W 1493   6.534   2.133   3.736
  497W        W 1494   2.697   7.460   4.056
  498W        W 1495   4.633   0.642   4.197
  499W        W 1496   3.496   3.235   4.749
  500W        W 1497   2.983   1.256   3.038
  501W        W 1498   5.067   6.904   3.109
  502W        W 1499   5.120   6.472   2.237
  503W        W 1500   7.425   1.891   3.543
  504W        W 1501   3.346   3.366   2.062
  505W        W 1502   4.943   3.212   7.333
  506W        W 1503   2.905   0.493   5.326
  507W        W 1504   1.813   1.775   4.665
  508W        W 1505   1.215   4.687   0.844
  509W        W 1506   3.028   7.407   0.527
  510W        W 1507   7.582   0.005   3.042
  511W        W 1508   0.201   3.645   6.965
  512W        W 1509   7.277   4.794   2.733
  513W        W 1510   5.349   4.628   4.057
  514W        W 1511   4.353   3.959   0.011
  515W        W 1512   4.966   2.867   6.984
  516W        W 1513   1.262   3.033   5.054
  517W        W 1514   6.613   7.421   6.380
  518W        W 1515   4.620   3.907   0.719
  519W        W 1516   4.987   7.461   7.894
  520W        W 1517   7.222   7.579   7.508
  521W        W 1518   7.772   0.232   5.642
  522W        W 1519   5.982   5.966   5.055
  523W        W 1520   6.420   7.919   0.320
  524W        W 1521   4.342   2.977   1.604
  525W        W 1522   2.628   3.594   2.729
  526W        W 1523   4.653   2.617   1.232
  527W        W 1524   7.318   0.141   6.262
  528W        W 1525   6.209   0.931   1.592
  529W        W 1526   0.889   5.918   0.791
  530W        W 1527   0.322   3.167   4.880
  531W        W 1528   6.479   5.093   4.224
  532W        W 1529   4.184   0.803   1.556
  533W        W 1530   5.660   4.132   7.602
  534W        W 1531   1.283   4.695   6.268
  535W        W 1532   1.247   6.209   5.510
  536W        W 1533   4.110   1.383   5.752
  537W        W 1534   4.118   4.271   1.307
  538W        W 1535   6.839   5.566   1.290
  539W        W 1536   4.773   7.483   0.258
  540W        W 1537   1.712   6.500   6.804
  541W        W 1538   7.635   5.228   2.470
  542W        W 1539   0.224   3.742   0.793
  543W        W 1540   1.908   6.078   7.028
  544W        W 1541   0.717   3.486   0.585
  545W        W 1542   6.343   2.126   3.278
  546W        W 1543   3.835   1.255   7.451
  547W        W 1544   3.187   0.885   5.582
  548W        W 1545   5.502   3.440   1.015
  549W        W 1546   0.033   4.036   6.689
  550W        W 1547   3.401   7.094   6.261
  551W        W 1548   7.723   6.265   7.387
  552W        W 1549   5.805   4.808   1.212
  553W        W 1550   6.441   5.309   7.423
  554W        W 1551   5.144   5.357   7.685
  555W        W 1552   7.520   2.191   7.253
  556W        W 1553   4.744   5.516   5.387
  557W        W 1554   0.035   2.034   2.958
  558W        W 1555   3.375   4.107   0.903
  559W        W 1556   3.017   5.364   3.640
  560W        W 1557   1.437   0.553   6.083
  561W        W 1558   2.542   1.777   2.588
  562W        W 1559   7.378   5.867   1.885
  563W        W 1560   7.877   2.039   7.607
  564W        W 1561   5.204   3.543   1.426
  565W        W 1562   2.582   7.435   4.585
  566W        W 1563   1.677   2.861   5.916
  567W        W 1564   2.080   0.539   4.640
  568W        W 1565   4.071   2.436   0.616
  569W        W 1566   5.158   5.228   6.585
  570W        W 1567   0.143   0.560   4.410
  571W        W 1568   4.606   5.967   5.119
  572W        W 1569   2.536   0.558   5.816
  573W        W 1570   7.413   4.681   5.948
  574W        W 1571   7.991   5.633   6.639
  575W        W 1572   3.832   7.376   0.280
  576W        W 1573   0.286   5.890   4.577
  577W        W 1574   2.289   0.991   6.095
  578W        W 1575   7.324   0.298   1.252
  579W        W 1576   4.399   0.978   5.528
  580W        W 1577   4.993   5.267   2.821
  581W        W 1578   5.627   3.686   6.405
  582W        W 1579   7.259   2.940   1.332
  583W        W 1580   2.877   6.251   5.587
  584W        W 1581   1.227   1.237   0.955
  585W        W 1582   3.396   7.434   1.537
  586W        W 1583   4.232   3.931   7.043
  587W        W 1584   1.236   7.565   4.667
  588W        W 1585   3.495   4.730   6.042
  589W        W 1586   5.740   1.246   1.262
  590W        W 1587   6.796   4.395   4.888
  591W        W 1588   5.221   1.061   6.166
  592W        W 1589   4.930   6.797   1.256
  593W        W 1590   5.397   7.156   7.021
  594W        W 1591   1.186   5.085   5.902
  595W        W 1592   1.348   2.195   4.747
  596W        W 1593   6.100   1.214   7.252
  597W        W 1594   6.460   0.201   5.175
  598W        W 1595   4.819   3.146   4.692
  599W        W 1596   7.781   7.076   4.202
  600W        W 1597   6.234   3.081   6.213
  601W        W 1598   2.800   6.112   3.806
  602W        W 1599   3.158   2.409   3.475
  603W        W 1600   7.563   0.563   0.850
  604W        W 1601   6.503   3.116   0.416
  605W        W 1602   5.289   4.868   1.395
  606W        W 1603   0.424   7.201   6.711
  607W        W 1604   0.152   2.032   6.016
  608W        W 1605   7.587   4.028   2.743
  609W        W 1606   2.291   0.858   7.014
  610W        W 1607   5.202   0.039   1.816
  611W        W 1608   3.216   2.553   6.908
  612W        W 1609   4.125   0.137   4.980
  613W        W 1610   4.016   0.967   6.795
  614W        W 1611   5.652   1.070   7.518
  615W        W 1612   4.900   5.178   4.854
  616W        W 1613   1.500   7.354   5.865
  617W        W 1614   3.738   3.949   6.893
  618W        W 1615   6.105   3.523   5.085
  619W        W 1616   1.396   5.128   1.171
  620W        W 1617   5.814   6.463   4.070
  621W        W 1618   6.426   6.802   4.629
  622W        W 1619   1.918   1.408   3.199
  623W        W 1620   7.084   0.246   7.757
  624W        W 1621   7.535   3.451   6.572
  625W        W 1622   5.476   5.506   3.062
  626W        W 1623   2.863   3.651   4.411
  627W        W 1624   3.124   4.803   5.673
  628W        W 1625   7.743   2.535   6.986
  629W        W 1626   7.319   0.592   3.824
  630W        W 1627   0.942   3.312   3.162
  631W        W 1628   0.700   2.625   7.709
  632W        W 1629   7.696   4.389   5.619
  633W        W 1630   3.732   1.920   4.338
  634W        W 1631   5.663   7.312   0.318
  635W        W 1632   5.389   2.908   7.218
  636W        W 1633   6.666   1.431   7.086
  637W        W 1634   4.791   5.033   4.367
  638W        W 1635   7.727   7.693   5.756
  639W        W 1636   6.520   5.539   5.383
  640W        W 1637   3.053   0.148   6.574
  641W        W 1638   3.165   0.879   0.806
  642W        W 1639   2.648   2.429   4.900
  643W        W 1640   7.142   7.191   3.641
  644W        W 1641   5.414   4.967   5.019
  645W        W 1642   5.643   4.973   1.712
  646W        W 1643   3.923   5.851   2.934
  647W        W 1644   1.047   0.730   0.842
  648W        W 1645   3.634   0.799   1.537
  649W        W 1646   3.739   6.172   4.685
  650W        W 1647   2.692   1.409   4.344
  651W        W 1648   7.646   0.601   5.030
  652W        W 1649   7.994   6.359   3.127
  653W        W 1650   1.802   3.796   0.068
  654W        W 1651   3.264   6.732   4.230
  655W        W 1652   5.444   5.721   6.519
  656W        W 1653   0.677   1.078   1.695
  657W        W 1654   7.017   4.256   1.494
  658W        W 1655   6.891   6.336   5.858
  659W        W 1656   5.465   1.586   6.276
  660W        W 1657   1.614   5.297   3.790
  661W        W 1658   1.659   3.056   1.384
  662W        W 1659   1.408   3.908   7.214
  663W        W 1660   1.016   3.415   6.237
  664W        W 1661   5.187   5.137   2.376
  665W        W 1662   4.676   2.608   2.394
  666W        W 1663   1.525   2.450   0.197
  667W        W 1664   0.843   5.491   6.891
  668W        W 1665   7.895   6.664   1.385
  669W        W 1666   4.583   7.146   2.891
  670W        W 1667   1.597   5.021   4.554
  671W        W 1668   1.797   6.203   3.493
  672W        W 1669   7.135   0.546   6.432
  673W        W 1670   4.333   6.850   4.869
  674W        W 1671   2.900   5.411   5.076
  675W        W 1672   3.065   2.670   2.662
  676W        W 1673   3.117   0.315   2.395
  677W        W 1674   6.485   0.695   2.439
  678W        W 1675   2.286   5.863   6.341
  679W        W 1676   3.708   0.846   7.169
  680W        W 1677   5.315   1.012   2.156
  681W        W 1678   1.212   6.050   4.135
  682W        W 1679   4.418   4.685   2.333
  683W        W 1680   5.465   5.844   3.535
  684W        W 1681   3.570   2.692   4.939
  685W        W 1682   3.117   3.245   0.875
  686W        W 1683   3.398   6.302   2.719
  687W        W 1684   7.441   2.521   4.771
  688W        W 1685   5.560   3.464   4.792
  689W        W 1686   3.114   6.425   0.093
  690W        W 1687   3.636   4.251   6.241
  691W        W 1688   4.758   3.178   2.262
  692W        W 1689   1.587   1.163   3.531
  693W        W 1690   0.063   3.334   1.877
  694W        W 1691   4.492   2.315   5.164
  695W        W 1692   6.124   5.431   3.999
  696W        W 1693   2.929   3.730   6.663
  697W        W 1694   6.545   0.630   1.750
  698W        W 1695   4.720   2.586   0.151
  699W        W 1696   4.892   0.678   3.118
  700W        W 1697   6.602   4.315   3.583
  701W        W 1698   5.543   6.725   3.066
  702W        W 1699   4.428   4.893   7.861
  703W        W 1700   1.349   4.504   5.750
  704W        W 1701   7.084   3.028   2.700
  705W        W 1702   5.021   6.502   4.099
  706W        W 1703   5.809   4.553   3.736
  707W        W 1704   7.200   6.199   0.631
  708W        W 1705   7.508   3.429   0.331
  709W        W 1706   7.863   0.510   3.663
  710W        W 1707   0.355   1.834   0.726
  711W        W 1708   3.006   4.287   2.349
  712W        W 1709   6.192   5.055   6.704
  713W        W 1710   0.096   5.650   2.097
  714W        W 1711   5.053   5.760   2.776
  715W        W 1712   4.905   1.783   2.274
  716W        W 1713   2.920   7.448   6.800
  717W        W 1714   0.547   1.496   2.918
  718W        W 1715   6.209   6.210   5.412
  719W        W 1716   0.915   3.151   0.918
  720W        W 1717   1.212   3.620   1.771
  721W        W 1718   1.071   5.493   0.947
  722W        W 1719   0.202   1.289   7.218
  723W        W 1720   7.595   7.058   4.752
  724W        W 1721   5.221   7.081   1.783
  725W        W 1722   4.346   7.524   2.685
  726W        W 1723   2.680   2.372   6.812
  727W        W 1724   0.272   4.236   0.905
  728W        W 1725   5.840   5.692   4.668
  729W        W 1726   6.359   6.594   1.848
  730W        W 1727   4.265   1.979   4.152
  731W        W 1728   0.352   0.725   0.326
  732W        W 1729   5.441   5.763   1.841
  733W        W 1730   0.531   2.365   5.632
  734W        W 1731   7.621   3.237   5.727
  735W        W 1732   0.649   2.401   2.353
  736W        W 1733   5.750   2.488   7.144
  737W        W 1734   4.090   4.384   7.175
  738W        W 1735   2.264   5.237   2.081
  739W        W 1736   5.913   7.713   4.093
  740W        W 1737   3.245   6.402   1.144
  741W        W 1738   3.932   3.889   7.439
  742W        W 1739   5.110   0.302   7.294
  743W        W 1740   2.502   6.522   3.966
  744W        W 1741   4.040   7.897   1.758
  745W        W 1742   5.567   7.716   0.647
  746W        W 1743   4.869   1.991   7.449
  747W        W 1744   3.390   3.753   2.940
  748W        W 1745   0.812   1.401   2.087
  749W        W 1746   3.202   6.231   7.403
  750W        W 1747   1.524   6.920   4.096
  751W        W 1748   1.421   1.412   3.028
  752W        W 1749   2.017   4.018   0.446
  753W        W 1750   2.558   2.666   6.394
  754W        W 1751   7.651   2.160   5.691
  755W        W 1752   7.147   2.379   4.286
  756W        W 1753   3.022   1.017   1.382
  757W        W 1754   6.438   3.904   5.094
  758W        W 1755   2.562   1.742   0.562
  759W        W 1756   7.000   6.917   1.133
  760W        W 1757   3.171   7.858   5.933
  761W        W 1758   5.918   1.346   4.481
  762W        W 1759   7.354   5.835   6.709
  763W        W 1760   1.022   7.298   5.068
  764W        W 1761   1.637   3.652   1.536
  765W        W 1762   4.056   4.719   5.852
  766W        W 1763   3.569   7.764   1.852
  767W        W 1764   3.311   0.291   3.292
  768W        W 1765   1.888   2.036   1.124
  769W        W 1766   3.141   5.918   4.320
  770W        W 1767   1.164   5.531   1.461
  771W        W 1768   2.393   6.021   7.142
  772W        W 1769   3.662   1.541   5.473
  773W        W 1770   3.922   4.919   2.477
  774W        W 1771   3.203   4.382   3.852
  775W        W 1772   4.765   0.817   1.985
  776W        W 1773   0.138   4.991   3.804
  777W        W 1774   6.678   2.203   6.575
  778W        W 1775   4.582   7.078   7.520
  779W        W 1776   7.080   0.317   2.566
  780W        W 1777   7.047   0.066   2.996
  781W        W 1778   1.420   6.824   7.049
  782W        W 1779   2.137   6.064   3.184
  783W        W 1780   5.599   1.795   1.442
  784W        W 1781   1.079   1.219   7.341
  785W        W 1782   6.324   7.800   5.275
  786W        W 1783   3.814   6.348   3.067
  787W        W 1784   0.638   6.022   7.278
  788W        W 1785   3.896   0.582   2.569
  789W        W 1786   7.838   7.938   6.760
  790W        W 1787   5.724   3.797   7.221
  791W        W 1788   4.748   0.991   5.906
  792W        W 1789   1.694   6.996   6.608
  793W        W 1790   6.550   6.219   6.919
  794W        W 1791   4.141   2.484   1.491
  795W        W 1792   4.366   4.879   1.892
  796W        W 1793   3.890   4.464   5.227
  797W        W 1794   4.322   4.220   2.198
  798W        W 1795   6.681   0.257   1.311
  799W        W 1796   6.360   0.096   6.675
  800W        W 1797   3.641   2.035   4.803
  801W        W 1798   7.127   1.857   4.383
  802W        W 1799   1.201   2.145   0.449
  803W        W 1800   6.194   7.259   6.684
  804W        W 1801   5.710   6.609   4.849
  805W        W 1802   3.286   6.929   2.196
  806W        W 1803   7.891   6.294   0.069
  807W        W 1804   1.462   2.385   3.446
  808W        W 1805   6.538   2.591   5.035
  809W        W 1806   6.993   6.038   1.494
  810W        W 1807   6.843   6.613   4.968
  811W        W 1808   0.372   5.154   0.568
  812W        W 1809   0.192   7.138   1.280
  813W        W 1810   1.536   1.917   5.082
  814W        W 1811   7.188   6.624   5.549
  815W        W 1812   3.745   5.473   2.203
  816W        W 1813   2.387   1.610   3.010
  817W        W 1814   2.750   7.132   5.512
  818W        W 1815   3.574   6.717   1.410
  819W        W 1816   5.807   3.849   2.025
  820W        W 1817   4.042   6.809   2.948
  821W        W 1818   2.298   5.809   2.189
  822W        W 1819   1.396   7.287   3.533
  823W        W 1820   1.489   6.440   3.203
  824W        W 1821   5.793   4.260   3.313
  825W        W 1822   6.593   6.010   1.145
  826W        W 1823   3.303   7.064   4.739
  827W        W 1824   5.584   4.019   1.010
  828W        W 1825   7.298   7.951   2.552
  829W        W 1826   3.710   2.616   7.064
  830W        W 1827   2.771   3.120   1.212
  831W        W 1828   3.496   1.347   0.700
  832W        W 1829   4.900   1.727   0.701
  833W        W 1830   5.959   1.680   4.854
  834W        W 1831   4.010   1.473   0.865
  835W        W 1832   3.907   1.399   6.185
  836W        W 1833   6.760   3.430   2.768
  837W        W 1834   2.220   5.611   5.922
  838W        W 1835   0.017   2.878   5.815
  839W        W 1836   5.654   3.685   5.857
  840W        W 1837   2.782   0.548   7.621
  841W        W 1838   0.824   2.973   4.029
  842W        W 1839   3.367   0.318   5.128
  843W        W 1840   4.797   7.291   3.383
  844W        W 1841   2.473   6.320   6.284
  845W        W 1842   2.635   3.243   6.778
  846W        W 1843   7.209   0.112   5.633
  847W        W 1844   6.674   2.198   4.234
  848W        W 1845   1.766   4.509   2.203
  849W        W 1846   1.742   2.104   3.805
  850W        W 1847   6.076   2.859   0.746
  851W        W 1848   6.226   3.159   6.787
  852W        W 1849   6.840   2.037   1.491
  853W        W 1850   4.746   7.648   6.686
  854W        W 1851   6.275   7.544   1.196
  855W        W 1852   1.311   2.704   1.901
  856W        W 1853   5.397   2.054   0.944
  857W        W 1854   6.285   2.643   0.354
  858W        W 1855   3.694   0.903   0.452
  859W        W 1856   1.893   0.839   0.304
  860W        W 1857   0.295   2.665   3.303
  861W        W 1858   5.081   3.448   5.746
  862W        W 1859   7.060   2.886   2.249
  863W        W 1860   7.262   3.375   4.721
  864W        W 1861   4.021   3.014   6.903
  865W        W 1862   0.889   0.470   6.247
  866W        W 1863   1.938   1.209   7.165
  867W        W 1864   2.027   1.006   3.859
  868W        W 1865   3.078   3.706   0.687
  869W        W 1866   0.735   2.826   3.144
  870W        W 1867   1.304   4.926   7.471
  871W        W 1868   4.825   4.081   6.240
  872W        W 1869   6.728   3.740   2.280
  873W        W 1870   5.114   4.551   0.243
  874W        W 1871   3.822   4.518   1.635
  875W        W 1872   4.001   1.172   5.234
  876W        W 1873   0.496   5.291   6.603
  877W        W 1874   0.546   3.519   6.411
  878W        W 1875   2.529   7.416   0.197
  879W        W 1876   7.105   6.582   2.538
  880W        W 1877   3.681   1.747   6.533
  881W        W 1878   5.293   4.796   6.354
  882W        W 1879   1.332   0.205   1.773
  883W        W 1880   5.819   7.572   7.811
  884W        W 1881   4.667   0.544   5.546
  885W        W 1882   5.235   5.420   5.229
  886W        W 1883   5.804   2.667   1.240
  887W        W 1884   4.362   1.525   5.319
  888W        W 1885   7.313   0.298   1.797
  889W        W 1886   0.001   1.151   2.642
  890W        W 1887   6.472   4.314   2.496
  891W        W 1888   3.087   7.268   4.331
  892W        W 1889   2.723   7.498   7.370
  893W        W 1890   1.157   0.291   0.019
  894W        W 1891   0.068   3.400   6.557
  895W        W 1892   2.906   7.091   6.429
  896W        W 1893   4.511   5.557   4.874
  897W        W 1894   3.140   5.477   4.628
  898W        W 1895   6.893   6.693   6.422
  899W        W 1896   4.391   2.575   3.360
  900W        W 1897   2.906   6.379   4.289
  901W        W 1898   2.871   6.934   7.424
  902W        W 1899   0.478   0.095   5.483
  903W        W 1900   3.712   2.699   1.305
  904W        W 1901   4.092   2.239   3.547
  905W        W 1902   1.500   0.397   0.922
  906W        W 1903   6.536   7.195   0.908
  907W        W 1904   5.036   3.241   1.043
  908W        W 1905   7.846   6.979   6.494
  909W        W 1906   4.566   3.157   5.852
  910W        W 1907   6.608   1.653   0.232
  911W        W 1908   1.326   5.599   6.604
  912W        W 1909   0.515   7.604   2.725
  913W        W 1910   6.428   6.822   5.303
  914W        W 1911   5.360   4.774   6.942
  915W        W 1912   3.958   6.118   6.932
  916W        W 1913   4.563   5.871   1.652
  917W        W 1914   0.526   5.648   5.930
  918W        W 1915   6.709   2.108   2.927
  919W        W 1916   1.515   2.327   6.240
  920W        W 1917   4.465   5.572   7.382
  921W        W 1918   6.941   6.530   3.030
  922W        W 1919   5.805   4.177   6.037
  923W        W 1920   0.388   3.811   5.758
  924W        W 1921   6.670   0.107   7.514
  925W        W 1922   5.202   7.213   4.833
  926W        W 1923   0.297   4.506   5.010
  927W        W 1924   4.491   2.303   7.446
  928W        W 1925   4.296   4.753   2.859
  929W        W 1926   3.337   2.878   3.083
  930W        W 1927   3.582   0.331   2.203
  931W        W 1928   6.898   1.536   4.724
  932W        W 1929   2.483   1.644   3.901
  933W        W 1930   5.851   5.987   3.251
  934W        W 1931   4.864   5.840   1.046
  935W        W 1932   6.844   3.175   3.995
  936W        W 1933   0.518   3.301   1.767
  937W        W 1934   5.552   1.919   4.293
  938W        W 1935   6.644   6.410   3.846
  939W        W 1936   5.767   1.207   5.472
  940W        W 1937   7.590   5.210   7.218
  941W        W 1938   3.918   3.500   2.945
  942W        W 1939   6.334   2.871   1.214
  943W        W 1940   1.164   0.380   1.302
  944W        W 1941   7.745   7.456   3.841
  945W        W 1942   1.428   5.400   5.470
  946W        W 1943   7.012   3.763   1.423
  947W        W 1944   2.536   2.445   3.485
  948W        W 1945   1.085   2.146   3.233
  949W        W 1946   2.839   4.805   5.160
  950W        W 1947   1.276   5.980   1.156
  951W        W 1948   3.757   0.708   5.103
  952W        W 1949   5.179   7.568   1.086
  953W        W 1950   3.198   1.616   3.374
  954W        W 1951   7.319   5.022   0.938
  955W        W 1952   6.514   6.061   2.216
  956W        W 1953   3.070   4.476   4.871
  957W        W 1954   3.013   2.894   6.527
  958W        W 1955   0.221   2.667   1.105
  959W        W 1956   5.527   2.920   0.879
  960W        W 1957   6.018   0.832   1.040
  961W        W 1958   3.547   2.545   2.758
  962W        W 1959   1.077   0.354   4.798
  963W        W 1960   5.689   2.920   2.350
  964W        W 1961   6.357   6.420   4.224
  965W        W 1962   2.504   2.739   0.926
  966W        W 1963   2.973   3.959   2.779
  967W        W 1964   7.246   1.188   5.668
  968W        W 1965   0.784   5.443   0.582
  969W        W 1966   3.083   2.675   4.172
  970W        W 1967   4.675   2.752   1.870
  971W        W 1968   4.158   4.184   3.586
  972W        W 1969   2.269   6.175   1.319
  973W        W 1970   0.625   5.859   1.817
  974W        W 1971   4.490   2.764   5.433
  975W        W 1972   1.819   5.613   0.564
  976W        W 1973   6.730   3.597   1.028
  977W        W 1974   7.406   6.131   6.248
  978W        W 1975   7.332   7.423   1.373
  979W        W 1976   4.591   4.252   3.345
  980W        W 1977   4.236   3.011   7.500
  981W        W 1978   6.335   6.960   4.023
  982W        W 1979   3.316   5.053   5.264
  983W        W 1980   7.113   1.939   1.921
  984W        W 1981   7.415   4.354   2.392
  985W        W 1982   2.056   1.011   2.319
  986W        W 1983   6.751   7.606   6.813
  987W        W 1984   3.062   5.826   2.898
  988W        W 1985   6.567   3.433   6.491
  989W        W 1986   4.902   7.280   1.376
  990W        W 1987   1.908   5.662   4.953
  991W        W 1988   4.602   6.999   0.081
  992W        W 1989   4.303   6.390   2.982
  993W        W 1990   6.280   6.292   7.885
  994W        W 1991   0.941   6.014   0.318
  995W        W 1992   6.389   7.684   2.789
  996W        W 1993   0.843   4.714   3.298
  997W        W 1994   1.900   0.251   4.031
  998W        W 1995   5.227   4.048   0.225
  999W        W 1996   5.713   1.745   1.961
 1000W        W 1997   2.799   3.654   3.432
 1001W        W 1998   5.449   3.091   3.041
 1002W        W 1999   6.268   4.709   2.901
 1003W        W 2000   5.641   5.643   3.982
 1004W        W 2001   7.776   5.874   7.021
 1005W        W 2002   4.843   4.339   0.739
 1006W        W 2003   6.335   5.614   1.370
 1007W        W 2004   0.195   1.231   0.158
 1008W        W 2005   0.354   7.844   6.757
 1009W        W 2006   7.146   0.763   5.058
 1010W        W 2007   7.476   2.066   4.116
 1011W        W 2008   3.928   6.100   6.005
 1012W        W 2009   2.580   4.977   6.336
 1013W        W 2010   1.569   5.996   5.173
 1014W        W 2011   4.949   4.583   3.597
 1015W        W 2012   3.142   6.756   5.561
 1016W        W 2013   1.664   3.058   4.620
 1017W        W 2014   6.564   2.752   0.738
 1018W        W 2015   2.044   4.616   6.907
 1019W        W 2016   4.830   4.724   1.087
 1020W        W 2017   5.833   5.746   1.482
 1021W        W 2018   7.628   3.244   1.543
 1022W        W 2019   5.518   2.090   3.465
 1023W        W 2020   2.215   3.016   6.558
 1024W        W 2021   6.981   4.385   5.350
 1025W        W 2022   2.470   5.045   6.798
 1026W        W 2023   2.699   4.150   4.825
 1027W        W 2024   0.897   3.350   1.464
 1028W        W 2025   3.724   1.509   3.200
 1029W        W 2026   1.622   3.374   2.600
 1030W        W 2027   4.354   7.543   3.313
 1031W        W 2028   7.034   5.787   3.834
 1032W        W 2029   5.145   6.054   6.881
 1033W        W 2030   3.004   0.352   0.136
 1034W        W 2031   5.241   3.473   4.395
 1035W        W 2032   4.364   0.457   7.512
 1036W        W 2033   0.452   4.205   7.641
 1037W        W 2034   5.168   0.548   2.339
 1038W        W 2035   4.476   0.410   1.428
 1039W        W 2036   2.368   6.709   7.733
 1040W        W 2037   3.378   4.676   0.238
 1041W        W 2038   3.341   5.214   1.690
 1042W        W 2039   5.398   2.125   6.481
 1043W        W 2040   4.562   1.263   0.791
 1044W        W 2041   1.465   6.290   7.881
 1045W        W 2042   2.826   6.337   7.059
 1046W        W 2043   4.891   6.400   5.183
 1047W        W 2044   0.909   2.548   5.958
 1048W        W 2045   1.821   0.355   0.484
 1049W        W 2046   0.775   7.207   6.385
 1050W        W 2047   1.403   1.589   1.921
 1051W        W 2048   1.342   1.666   2.598
 1052W        W 2049   2.191   2.901   7.545
 1053W        W 2050   6.060   1.427   2.206
 1054W        W 2051   1.834   0.195   2.522
 1055W        W 2052   4.969   4.629   2.548
 1056W        W 2053   5.149   6.670   6.909
 1057W        W 2054   6.085   1.512   6.300
 1058W        W 2055   7.465   2.577   3.265
 1059W        W 2056   6.087   1.336   3.709
 1060W        W 2057   1.638   2.544   6.727
 1061W        W 2058   0.385   4.034   4.797
 1062W        W 2059   6.067   3.769   3.175
 1063W        W 2060   5.309   6.489   1.442
 1064W        W 2061   3.938   1.744   6.996
 1065W        W 2062   0.786   3.743   2.892
 1066W        W 2063   4.999   6.683   5.574
 1067W        W 2064   1.681   4.256   4.748
 1068W        W 2065   5.440   4.797   3.544
 1069W        W 2066   4.939   7.991   5.248
 1070W        W 2067   1.130   4.601   0.022
 1071W        W 2068   4.667   0.450   5.005
 1072W        W 2069   0.559   1.736   5.308
 1073W        W 2070   1.912   7.623   0.138
 1074W        W 2071   5.143   1.691   1.760
 1075W        W 2072   6.608   3.807   1.743
 1076W        W 2073   3.360   2.001   4.042
 1077W        W 2074   1.248   6.889   3.215
 1078W        W 2075   4.866   2.164   0.978
 1079W        W 2076   1.154   2.878   1.361
 1080W        W 2077   1.303   5.078   1.776
 1081W        W 2078   3.241   7.779   2.356
 1082W        W 2079   6.462   0.782   4.379
 1083W        W 2080   5.998   1.762   4.130
 1084W        W 2081   1.353   3.223   6.577
 1085W        W 2082   2.632   3.609   0.299
 1086W        W 2083   6.247   1.885   2.814
 1087W        W 2084   0.791   3.735   5.499
 1088W        W 2085   1.278   1.701   4.585
 1089W        W 2086   6.061   1.630   1.049
 1090W        W 2087   4.359   1.204   1.277
 1091W        W 2088   7.505   0.577   6.032
 1092W        W 2089   7.471   0.804   3.433
 1093W        W 2090   4.863   6.071   2.328
 1094W        W 2091   0.007   7.473   7.485
 1095W        W 2092   0.304   6.595   0.094
 1096W        W 2093   6.980   3.724   5.751
 1097W        W 2094   7.267   0.286   3.432
 1098W        W 2095   6.712   4.690   7.639
 1099W        W 2096   1.447   1.939   2.961
 1100W        W 2097   0.985   5.964   3.333
 1101W        W 2098   6.265   4.431   5.015
 1102W        W 2099   6.228   7.698   3.540
 1103W        W 2100   3.817   0.298   5.391
 1104W        W 2101   2.476   0.913   7.524
 1105W        W 2102   4.966   3.303   3.037
 1106W        W 2103   7.453   2.320   5.309
 1107W        W 2104   7.640   7.552   7.172
 1108W        W 2105   2.261   0.455   0.278
 1109W        W 2106   0.618   6.358   1.648
 1110W        W 2107   3.496   0.941   7.629
 1111W        W 2108   3.541   0.154   2.723
 1112W        W 2109   3.276   2.798   1.962
 1113W        W 2110   2.097   5.571   7.236
 1114W        W 2111   3.938   4.747   0.571
 1115W        W 2112   3.676   6.414   3.541
 1116W        W 2113   0.629   1.559   1.554
 1117W        W 2114   5.639   1.258   2.512
 1118W        W 2115   6.580   2.519   7.484
 1119W        W 2116   1.672   7.002   0.107
 1120W        W 2117   4.136   5.789   0.177
 1121W        W 2118   6.582   2.142   0.206
 1122W        W 2119   3.323   6.757   7.436
 1123W        W 2120   7.066   7.436   4.566
 1124W        W 2121   4.897   3.388   6.199
 1125W        W 2122   3.152   1.405   6.034
 1126W        W 2123   4.753   6.501   4.682
 1127W        W 2124   7.787   1.222   1.973
 1128W        W 2125   6.495   5.484   0.012
 1129W        W 2126   0.973   2.798   0.005
 1130W        W 2127   2.719   3.061   6.067
 1131W        W 2128   0.311   2.970   6.510
 1132W        W 2129   3.989   1.950   5.393
 1133W        W 2130   4.207   2.560   7.067
 1134W        W 2131   3.163   6.994   1.347
 1135W        W 2132   3.157   2.765   4.711
 1136W        W 2133   7.415   4.168   0.704
 1137W        W 2134   6.256   1.267   4.194
 1138W        W 2135   3.739   5.514   1.710
 1139W        W 2136   3.727   2.511   2.244
 1140W        W 2137   4.923   1.444   5.399
 1141W        W 2138   2.640   2.948   4.716
 1142W        W 2139   2.232   2.089   3.938
 1143W        W 2140   7.015   5.663   5.231
 1144W        W 2141   3.494   5.968   3.092
 1145W        W 2142   5.105   5.474   6.177
 1146W        W 2143   7.078   6.166   5.351
 1147W        W 2144   6.122   1.669   0.272
 1148W        W 2145   0.562   6.696   4.224
 1149W        W 2146   7.264   2.924   4.477
 1150W        W 2147   4.618   4.853   5.774
 1151W        W 2148   5.446   0.715   3.238
 1152W        W 2149   4.487   5.108   6.605
 1153W        W 2150   3.494   1.117   5.266
 1154W        W 2151   6.668   2.283   5.422
 1155W        W 2152   7.317   2.931   5.472
 1156W        W 2153   3.832   3.164   3.826
 1157W        W 2154   1.718   5.164   5.019
 1158W        W 2155   4.167   7.871   5.845
 1159W        W 2156   0.744   0.647   3.507
 1160W        W 2157   1.061   2.166   6.440
 1161W        W 2158   3.500   4.993   3.530
 1162W        W 2159   1.456   6.088   6.783
 1163W        W 2160   0.721   5.777   4.064
 1164W        W 2161   2.224   4.029   1.619
 1165W        W 2162   6.049   4.942   5.816
 1166W        W 2163   4.486   1.512   3.592
 1167W        W 2164   6.821   2.684   4.519
 1168W        W 2165   7.591   1.988   3.057
 1169W        W 2166   0.176   4.104   4.233
 1170W        W 2167   4.662   3.662   5.389
 1171W        W 2168   2.564   0.491   4.434
 1172W        W 2169   6.150   4.255   5.563
 1173W        W 2170   0.834   4.074   5.082
 1174W        W 2171   0.487   1.568   6.136
 1175W        W 2172   1.649   2.257   0.717
 1176W        W 2173   3.816   3.033   2.810
 1177W        W 2174   7.100   3.206   5.790
 1178W        W 2175   7.677   5.164   1.867
 1179W        W 2176   3.674   6.573   5.610
 1180W        W 2177   6.041   4.914   7.650
 1181W        W 2178   4.399   2.224   1.137
 1182W        W 2179   1.079   0.800   4.328
 1183W        W 2180   6.991   5.747   0.853
 1184W        W 2181   3.953   0.469   0.623
 1185W        W 2182   7.739   5.277   1.321
 1186W        W 2183   5.560   2.026   4.787
 1187W        W 2184   5.736   6.995   6.161
 1188W        W 2185   4.503   2.133   5.680
 1189W        W 2186   0.921   6.228   2.177
 1190W        W 2187   1.817   7.156   7.400
 1191W        W 2188   1.042   6.311   7.583
 1192W        W 2189   6.086   5.191   1.483
 1193W        W 2190   6.891   5.013   7.314
 1194W        W 2191   7.212   6.156   2.290
 1195W        W 2192   1.153   2.669   0.473
 1196W        W 2193   1.910   7.212   0.497
 1197W        W 2194   2.532   6.671   0.820
 1198W        W 2195   4.139   7.036   1.675
 1199W        W 2196   3.777   5.041   3.983
 1200W        W 2197   6.230   5.550   1.949
 1201W        W 2198   1.666   2.182   2.557
 1202W        W 2199   2.492   6.273   2.169
 1203W        W 2200   2.663   7.517   0.802
 1204W        W 2201   3.737   2.660   6.034
 1205W        W 2202   2.111   3.553   1.486
 1206W        W 2203   0.056   0.427   2.832
 1207W        W 2204   1.117   7.647   6.069
 1208W        W 2205   6.219   5.873   6.812
 1209W        W 2206   2.025   3.961   7.673
 1210W        W 2207   2.661   4.839   5.864
 1211W        W 2208   5.243   3.528   3.408
 1212W        W 2209   3.781   0.367   1.725
 1213W        W 2210   4.343   4.692   5.384
 1214W        W 2211   7.508   0.166   2.258
 1215W        W 2212   5.340   6.059   2.541
 1216W        W 2213   4.344   3.901   3.061
 1217W        W 2214   2.514   3.844   0.708
 1218W        W 2215   6.884   0.578   7.417
 1219W        W 2216   4.079   6.023   4.351
 1220W        W 2217   4.425   1.954   7.083
 1221W        W 2218   3.688   2.512   3.309
 1222W        W 2219   0.232   6.549   0.771
 1223W        W 2220   0.591   5.175   3.517
 1224W        W 2221   4.496   2.126   2.183
 1225W        W 2222   4.290   5.304   1.647
 1226W        W 2223   5.587   2.360   1.548
 1227W        W 2224   3.663   0.579   3.519
 1228W        W 2225   3.412   2.518   6.484
 1229W        W 2226   1.800   6.958   4.553
 1230W        W 2227   6.351   1.034   2.079
 1231W        W 2228   0.347   5.778   5.098
 1232W        W 2229   4.602   2.448   0.681
 1233W        W 2230   2.342   0.988   4.635
 1234W        W 2231   6.373   3.359   3.339
 1235W        W 2232   4.649   1.885   4.478
 1236W        W 2233   6.861   1.993   2.479
 1237W        W 2234   6.455   5.133   2.675
 1238W        W 2235   3.810   5.574   0.861
 1239W        W 2236   4.876   1.732   6.991
 1240W        W 2237   0.850   0.708   2.890
 1241W        W 2238   0.172   5.419   6.260
 1242W        W 2239   1.607   3.627   7.575
 1243W        W 2240   4.993   6.619   1.777
 1244W        W 2241   0.447   3.259   0.140
 1245W        W 2242   6.302   6.449   0.468
 1246W        W 2243   2.023   4.775   4.566
 1247W        W 2244   3.927   1.219   1.525
 1248W        W 2245   1.936   7.458   1.801
 1249W        W 2246   2.191   5.884   0.891
 1250W        W 2247   0.403   0.677   2.529
 1251W        W 2248   3.607   4.399   5.713
 1252W        W 2249   6.651   4.122   5.875
 1253W        W 2250   3.650   1.181   5.817
 1254W        W 2251   6.839   0.103   0.252
 1255W        W 2252   3.229   2.330   2.286
 1256W        W 2253   1.304   2.260   7.257
 1257W        W 2254   0.355   6.905   2.535
 1258W        W 2255   6.057   2.553   2.331
 1259W        W 2256   6.922   4.117   1.982
 1260W        W 2257   6.060   5.321   2.393
 1261W        W 2258   3.696   3.430   6.748
 1262W        W 2259   6.034   3.740   0.950
 1263W        W 2260   3.728   0.913   6.345
 1264W        W 2261   5.217   4.981   5.881
 1265W        W 2262   0.594   0.090   6.022
 1266W        W 2263   5.230   5.305   1.880
 1267W        W 2264   4.184   5.626   5.296
 1268W        W 2265   2.294   6.490   1.731
 1269W        W 2266   5.000   2.260   2.551
 1270W        W 2267   4.997   6.915   4.465
 1271W        W 2268   3.596   2.501   0.732
 1272W        W 2269   0.936   4.322   6.089
 1273W        W 2270   0.833   7.622   6.778
 1274W        W 2271   2.040   0.260   5.024
 1275W        W 2272   3.889   6.723   7.542
 1276W        W 2273   1.014   0.208   4.188
 1277W        W 2274   0.862   6.538   0.251
 1278W        W 2275   5.894   7.172   3.957
 1279W        W 2276   1.124   3.015   2.735
 1280W        W 2277   0.300   4.453   6.463
 1281W        W 2278   3.539   4.136   4.956
 1282W        W 2279   1.384   3.156   1.782
 1283W        W 2280   3.578   1.992   7.916
 1284W        W 2281   0.285   5.537   3.614
 1285W        W 2282   0.325   0.641   1.620
 1286W        W 2283   1.853   7.749   2.223
 1287W        W 2284   1.550   0.760   5.615
 1288W        W 2285   0.517   7.623   7.632
 1289W        W 2286   5.951   7.552   2.617
 1290W        W 2287   4.165   0.077   3.431
 1291W        W 2288   0.764   5.254   4.025
 1292W        W 2289   7.025   4.993   6.147
 1293W        W 2290   1.355   0.207   2.311
 1294W        W 2291   4.323   6.866   3.803
 1295W        W 2292   6.591   2.008   1.994
 1296W        W 2293   6.482   3.851   2.716
 1297W        W 2294   5.027   1.383   6.502
 1298W        W 2295   5.171   7.381   2.880
 1299W        W 2296   4.114   0.242   2.343
 1300W        W 2297   4.686   0.030   7.445
 1301W        W 2298   2.811   2.637   5.717
 1302W        W 2299   3.173   1.837   7.517
 1303W        W 2300   1.914   4.956   0.181
 1304W        W 2301   5.814   0.605   7.206
 1305W        W 2302   2.414   3.338   3.550
 1306W        W 2303   5.515   3.154   0.293
 1307W        W 2304   5.947   0.852   4.478
 1308W        W 2305   7.072   0.464   5.924
 1309W        W 2306   5.108   5.571   3.873
 1310W        W 2307   6.119   4.913   3.718
 1311W        W 2308   6.069   3.507   6.110
 1312W        W 2309   7.708   1.714   7.231
 1313W        W 2310   1.076   5.248   4.481
 1314W        W 2311   7.738   1.006   6.227
 1315W        W 2312   4.952   5.119   0.358
 1316W        W 2313   7.136   7.857   5.127
 1317W        W 2314   4.823   2.843   3.268
 1318W        W 2315   1.508   2.550   1.237
 1319W        W 2316   7.671   4.616   1.903
 1320W        W 2317   4.984   0.197   5.627
 1321W        W 2318   2.006   2.364   7.588
 1322W        W 2319   1.776   3.968   1.882
 1323W        W 2320   0.937   6.741   7.292
 1324W        W 2321   3.873   2.918   0.695
 1325W        W 2322   4.633   1.684   6.480
 1326W        W 2323   3.132   5.419   7.093
 1327W        W 2324   5.136   5.654   2.250
 1328W        W 2325   5.669   0.753   6.255
 1329W        W 2326   2.224   1.472   2.370
 1330W        W 2327   3.789   6.089   2.538
 1331W        W 2328   2.176   6.495   3.556
 1332W        W 2329   3.637   6.393   4.251
 1333W        W 2330   4.946   7.098   3.972
 1334W        W 2331   2.105   6.729   6.482
 1335W        W 2332   0.188   7.660   5.751
 1336W        W 2333   6.312   6.895   0.582
 1337W        W 2334   6.740   4.741   2.733
 1338W        W 2335   2.082   3.323   4.749
 1339W        W 2336   5.952   6.594   1.539
 1340W        W 2337   1.833   4.741   7.357
 1341W        W 2338   2.922   5.931   5.199
 1342W        W 2339   1.617   6.714   2.744
 1343W        W 2340   4.899   1.989   5.242
 1344W        W 2341   6.758   2.202   4.719
 1345W        W 2342   5.590   6.386   6.761
 1346W        W 2343   1.693   7.448   6.320
 1347W        W 2344   0.718   1.108   1.178
 1348W        W 2345   5.579   3.161   7.796
 1349W        W 2346   4.543   5.476   0.451
 1350W        W 2347   6.331   0.780   2.972
 1351W        W 2348   7.587   5.823   0.334
 1352W        W 2349   3.714   2.040   1.465
 1353W        W 2350   7.237   5.494   2.855
 1354W        W 2351   3.796   6.571   6.955
 1355W        W 2352   1.778   6.030   1.271
 1356W        W 2353   7.591   2.620   1.561
 1357W        W 2354   1.116   5.761   4.478
 1358W        W 2355   5.633   5.043   6.633
 1359W        W 2356   7.688   3.141   4.289
 1360W        W 2357   7.548   7.130   7.445
 1361W        W 2358   4.078   6.811   1.228
 1362W        W 2359   7.313   4.817   7.484
 1363W        W 2360   2.617   2.730   5.294
 1364W        W 2361   0.066   4.405   4.621
 1365W        W 2362   1.082   5.121   3.580
 1366W        W 2363   6.769   6.635   7.704
 1367W        W 2364   0.164   6.131   6.648
 1368W        W 2365   1.351   0.689   0.338
 1369W        W 2366   0.785   4.239   2.560
 1370W        W 2367   3.554   3.598   7.563
 1371W        W 2368   0.559   3.992   6.820
 1372W        W 2369   1.324   3.160   2.276
 1373W        W 2370   1.894   1.102   7.970
 1374W        W 2371   2.800   4.596   3.966
 1375W        W 2372   4.534   1.931   3.184
 1376W        W 2373   1.318   0.987   7.823
 1377W        W 2374   2.358   2.337   7.234
 1378W        W 2375   5.462   7.445   5.905
 1379W        W 2376   3.398   6.171   5.759
 1380W        W 2377   5.394   7.332   3.924
 1381W        W 2378   1.932   6.657   7.394
 1382W        W 2379   7.018   4.293   7.774
 1383W        W 2380   6.251   4.531   2.084
 1384W        W 2381   5.677   0.823   1.485
 1385W        W 2382   4.061   5.772   6.440
 1386W        W 2383   4.046   2.412   5.076
 1387W        W 2384   7.788   3.530   1.096
 1388W        W 2385   0.514   7.411   3.602
 1389W        W 2386   6.063   2.971   2.700
 1390W        W 2387   6.957   3.770   7.577
 1391W        W 2388   4.540   2.522   6.452
 1392W        W 2389   3.530   0.381   6.928
 1393W        W 2390   7.183   0.281   0.651
 1394W        W 2391   3.573   2.011   3.508
 1395W        W 2392   7.941   6.739   7.309
 1396W        W 2393   5.642   1.206   5.954
 1397W        W 2394   3.708   0.045   6.418
 1398W        W 2395   0.590   4.329   2.097
 1399W        W 2396   4.089   2.308   3.037
 1400W        W 2397   3.429   0.065   4.510
 1401W        W 2398   6.949   0.172   3.822
 1402W        W 2399   2.652   5.645   1.216
 1403W        W 2400   6.126   6.337   3.747
 1404W        W 2401   2.175   1.295   1.874
 1405W        W 2402   1.999   3.934   4.185
 1406W        W 2403   0.093   1.727   6.402
 1407W        W 2404   3.957   7.669   5.072
 1408W        W 2405   1.754   2.981   6.474
 1409W        W 2406   6.848   5.103   3.094
 1410W        W 2407   5.235   1.803   2.756
 1411W        W 2408   7.130   4.711   6.527
 1412W        W 2409   5.257   2.207   6.949
 1413W        W 2410   0.545   6.512   7.548
 1414W        W 2411   1.963   6.059   5.524
 1415W        W 2412   0.439   1.282   2.433
 1416W        W 2413   0.256   3.930   1.979
 1417W        W 2414   0.659   7.191   4.113
 1418W        W 2415   6.040   4.928   4.276
 1419W        W 2416   7.192   2.343   1.678
 1420W        W 2417   0.855   0.673   0.025
 1421W        W 2418   1.077   4.228   4.581
 1422W        W 2419   5.578   0.261   5.410
 1423W        W 2420   2.568   4.130   3.144
 1424W        W 2421   6.233   7.846   2.339
 1425W        W 2422   3.342   0.838   6.064
 1426W        W 2423   5.847   3.300   0.705
 1427W        W 2424   1.049   2.854   5.481
 1428W        W 2425   5.279   3.992   3.233
 1429W        W 2426   1.204   1.112   5.672
 1430W        W 2427   4.636   3.366   0.664
 1431W        W 2428   5.867   1.910   6.439
 1432W        W 2429   6.972   4.184   3.358
 1433W        W 2430   1.757   5.758   2.386
 1434W        W 2431   4.545   0.159   7.952
 1435W        W 2432   2.785   0.380   0.604
 1436W        W 2433   7.453   7.326   6.059
 1437W        W 2434   7.622   7.395   6.668
 1438W        W 2435   4.467   7.370   2.231
 1439W        W 2436   4.576   5.573   6.286
 1440W        W 2437   4.989   5.452   0.756
 1441W        W 2438   4.415   1.467   7.041
 1442W        W 2439   7.622   2.966   7.407
 1443W        W 2440   2.370   4.307   4.069
 1444W        W 2441   6.542   2.731   2.102
 1445W        W 2442   5.764   6.814   0.460
 1446W        W 2443   4.776   6.357   6.772
 1447W        W 2444   5.685   5.510   5.672
 1448W        W 2445   6.651   7.169   3.600
 1449W        W 2446   7.032   1.800   7.258
 1450W        W 2447   7.466   0.457   7.432
 1451W        W 2448   5.107   0.975   1.586
 1452W        W 2449   6.839   7.828   2.078
 1453W        W 2450   5.096   0.342   3.456
 1454W        W 2451   7.414   3.625   6.082
 1455W        W 2452   7.444   6.258   6.994
 1456W        W 2453   0.981   1.980   6.889
 1457W        W 2454   1.698   6.040   0.745
 1458W        W 2455   1.832   1.599   6.802
 1459W        W 2456   1.571   0.159   3.661
 1460W        W 2457   2.094   1.166   2.820
 1461W        W 2458   1.978   2.923   3.614
 1462W        W 2459   4.646   5.944   7.121
 1463W        W 2460   2.184   7.558   7.565
 1464W        W 2461   7.772   5.007   2.868
 1465W        W 2462   0.832   7.449   1.820
 1466W        W 2463   2.543   3.552   1.080
 1467W        W 2464   1.489   3.457   3.598
 1468W        W 2465   7.830   0.337   1.667
 1469W        W 2466   4.464   7.476   4.318
 1470W        W 2467   7.819   2.425   0.823
 1471W        W 2468   7.684   3.770   1.542
 1472W        W 2469   1.791   1.401   2.178
 1473W        W 2470   7.616   1.182   4.268
 1474W        W 2471   4.021   1.985   0.088
 1475W        W 2472   4.175   5.704   2.109
 1476W        W 2473   0.557   0.767   0.837
 1477W        W 2474   7.396   2.144   2.285
 1478W        W 2475   2.719   4.465   6.255
 1479W        W 2476   3.286   1.367   7.418
 1480W        W 2477   6.292   1.655   3.345
 1481W        W 2478   0.073   7.311   2.727
 1482W        W 2479   4.249   5.123   3.707
 1483W        W 2480   5.061   3.422   7.793
 1484W        W 2481   5.746   0.169   2.180
 1485W        W 2482   0.618   1.067   6.389
 1486W        W 2483   6.417   4.384   7.015
 1487W        W 2484   3.487   2.871   3.580
 1488W        W 2485   3.098   0.309   1.107
 1489W        W 2486   5.510   5.288   6.214
 1490W        W 2487   2.766   0.317   2.755
 1491W        W 2488   3.502   4.934   4.472
 1492W        W 2489   6.702   1.587   1.012
 1493W        W 2490   7.654   7.606   4.340
 1494W        W 2491   4.595   0.268   3.168
 1495W        W 2492   6.307   0.071   1.782
 1496W        W 2493   5.339   2.579   3.728
 1497W        W 2494   2.529   5.449   6.412
 1498W        W 2495   7.373   3.802   3.851
 1499W        W 2496   3.151   2.240   0.425
 1500W        W 2497   2.520   0.357   6.877
 1501W        W 2498   7.254   2.918   6.584
 1502W        W 2499   2.553   1.263   1.173
 1503W        W 2500   0.615   4.878   2.424
 1504W        W 2501   7.116   5.438   7.039
 1505W        W 2502   1.996   0.039   3.378
 1506W        W 2503   7.608   5.585   6.318
 1507W        W 2504   0.213   6.878   1.741
 1508W        W 2505   6.753   7.597   4.938
 1509W        W 2506   3.436   4.257   2.072
 1510W        W 2507   1.189   5.528   3.936
 1511W        W 2508   3.193   1.760   0.687
 1512W        W 2509   3.407   4.553   0.697
 1513W        W 2510   1.650   1.108   1.739
 1514W        W 2511   4.816   2.432   7.080
 1515W        W 2512   0.464   4.182   5.391
 1516W        W 2513   5.085   2.746   4.577
 1517W        W 2514   6.311   1.793   6.945
 1518W        W 2515   4.427   7.403   7.943
 1519W        W 2516   7.248   0.490   4.654
 1520W        W 2517   0.710   6.439   5.324
 1521W        W 2518   1.578   0.561   1.513
 1522W        W 2519   0.163   4.900   4.767
 1523W        W 2520   1.390   3.206   7.456
 1524W        W 2521   5.150   3.670   7.039
 1525W        W 2522   5.962   7.482   3.126
 1526W        W 2523   7.661   4.491   5.009
 1527W        W 2524   2.531   1.020   2.076
 1528W        W 2525   3.016   3.384   3.020
 1529W        W 2526   5.513   6.056   4.835
 1530W        W 2527   1.410   4.579   4.291
 1531W        W 2528   5.463   1.985   5.925
 1532W        W 2529   0.329   1.328   6.700
 1533W        W 2530   1.992   2.594   6.242
 1534W        W 2531   0.177   2.228   6.485
 1535W        W 2532   4.955   7.737   2.542
 1536W        W 2533   4.453   4.650   6.316
 1537W        W 2534   5.505   4.971   7.689
 1538W        W 2535   5.537   4.004   1.517
 1539W        W 2536   1.803   5.346   5.932
 1540W        W 2537   3.276   1.815   5.063
 1541W        W 2538   1.989   5.266   3.367
 1542W        W 2539   1.441   0.409   2.745
 1543W        W 2540   6.397   3.710   5.643
 1544W        W 2541   5.358   4.297   3.635
 1545W        W 2542   7.061   0.525   2.126
 1546W        W 2543   1.734   0.332   7.420
 1547W        W 2544   2.660   5.098   7.919
 1548W        W 2545   5.772   2.401   0.733
 1549W        W 2546   4.438   5.155   5.178
 1550W        W 2547   2.671   1.960   6.346
 1551W        W 2548   1.765   6.611   2.013
 1552W        W 2549   2.391   3.822   4.472
 1553W        W 2550   5.814   5.830   2.740
 1554W        W 2551   7.767   7.646   2.235
 1555W        W 2552   4.076   4.360   3.129
 1556W        W 2553   3.205   0.791   3.265
 1557W        W 2554   5.526   5.410   6.960
 1558W        W 2555   1.990   2.427   0.388
 1559W        W 2556   0.980   5.608   5.702
 1560W        W 2557   2.491   4.948   4.695
 1561W        W 2558   2.467   0.548   1.911
 1562W        W 2559   2.116   7.090   7.854
 1563W        W 2560   2.000   6.580   3.082
 1564W        W 2561   1.486   6.327   1.615
 1565W        W 2562   6.531   4.885   2.258
 1566W        W 2563   3.216   3.324   6.769
 1567W        W 2564   2.016   0.649   2.763
 1568W        W 2565   2.458   2.247   5.464
 1569W        W 2566   2.046   1.167   1.366
 1570W        W 2567   0.776   7.026   3.448
 1571W        W 2568   2.647   5.507   6.980
 1572W        W 2569   5.881   5.785   2.260
 1573W        W 2570   7.808   6.537   3.566
 1574W        W 2571   3.516   7.607   4.272
 1575W        W 2572   0.483   0.297   6.555
 1576W        W 2573   1.912   1.926   2.155
 1577W        W 2574   3.943   1.522   7.879
 1578W        W 2575   1.396   6.712   7.553
 1579W        W 2576   7.494   1.191   0.984
 1580W        W 2577   3.853   4.818   0.070
 1581W        W 2578   5.960   1.198   4.977
 1582W        W 2579   5.033   5.651   0.213
 1583W        W 2580   5.166   3.297   2.554
 1584W        W 2581   6.900   2.318   0.600
 1585W        W 2582   1.111   2.459   6.875
 1586W        W 2583   0.302   0.807   6.721
 1587W        W 2584   4.177   4.628   3.946
 1588W        W 2585   7.073   4.583   3.715
 1589W        W 2586   7.179   3.464   7.307
 1590W        W 2587   4.388   4.202   7.528
 1591W        W 2588   1.875   5.670   2.863
 1592W        W 2589   4.097   2.644   2.627
 1593W        W 2590   4.638   6.353   5.644
 1594W        W 2591   3.580   3.200   1.064
 1595W        W 2592   2.526   3.282   7.359
 1596W        W 2593   3.843   0.785   5.595
 1597W        W 2594   1.962   0.517   3.593
 1598W        W 2595   7.330   6.644   5.037
 1599W        W 2596   2.521   4.185   0.344
 1600W        W 2597   3.114   6.868   0.871
 1601W        W 2598   1.413   2.944   7.000
 1602W        W 2599   3.474   0.799   4.361
 1603W        W 2600   2.069   7.374   4.854
 1604W        W 2601   0.448   0.638   6.210
 1605W        W 2602   1.566   1.004   6.819
 1606W        W 2603   7.237   3.157   3.177
 1607W        W 2604   1.110   1.259   3.675
 1608W        W 2605   4.119   2.395   5.632
 1609W        W 2606   5.874   0.817   3.559
 1610W        W 2607   1.037   0.452   5.780
 1611W        W 2608   1.074   0.291   3.689
 1612W        W 2609   6.143   0.541   2.088
 1613W        W 2610   5.531   6.685   1.928
 1614W        W 2611   2.042   2.409   3.534
 1615W        W 2612   4.395   2.448   3.909
 1616W        W 2613   4.419   0.971   7.169
 1617W        W 2614   0.638   0.525   7.210
 1618W        W 2615   5.473   6.391   4.374
 1619W        W 2616   6.034   5.371   2.947
 1620W        W 2617   7.386   3.899   0.274
 1621W        W 2618   3.674   5.952   4.055
 1622W        W 2619   1.230   7.334   0.843
 1623W        W 2620   1.219   1.645   0.593
 1624W        W 2621   2.223   1.625   6.504
 1625W        W 2622   7.706   2.435   2.812
 1626W        W 2623   0.890   2.120   4.923
 1627W        W 2624   2.443   6.161   5.267
 1628W        W 2625   1.811   5.290   6.790
 1629W        W 2626   3.406   2.905   0.505
 1630W        W 2627   7.425   4.879   2.271
 1631W        W 2628   5.567   7.750   2.973
 1632W        W 2629   4.133   5.179   7.571
 1633W        W 2630   2.783   3.019   2.816
 1634W        W 2631   1.930   7.493   5.355
 1635W        W 2632   1.720   5.963   4.000
 1636W        W 2633   6.384   7.461   3.976
 1637W        W 2634   0.612   2.337   0.724
 1638W        W 2635   7.152   4.350   2.928
 1639W        W 2636   7.917   1.335   0.567
 1640W        W 2637   2.199   1.995   6.868
 1641W        W 2638   0.589   3.749   2.325
 1642W        W 2639   5.467   4.137   5.269
 1643W        W 2640   7.769   0.007   0.609
 1644W        W 2641   3.719   0.018   3.235
 1645W        W 2642   5.418   6.375   7.265
 1646W        W 2643   4.813   4.765   3.028
 1647W        W 2644   2.061   6.437   0.850
 1648W        W 2645   2.863   5.175   5.543
 1649W        W 2646   2.775   4.943   2.837
 1650W        W 2647   6.124   0.950   6.361
 1651W        W 2648   7.318   7.049   6.474
 1652W        W 2649   0.326   0.362   5.032
 1653W        W 2650   3.916   2.169   2.571
 1654W        W 2651   4.917   4.577   6.107
 1655W        W 2652   5.090   2.202   1.444
 1656W        W 2653   4.726   6.268   3.282
 1657W        W 2654   0.942   0.045   7.397
 1658W        W 2655   1.862   7.796   7.231
 1659W        W 2656   4.214   6.426   0.818
 1660W        W 2657   0.938   2.908   6.753
 1661W        W 2658   3.070   3.944   5.142
 1662W        W 2659   4.512   0.027   1.725
 1663W        W 2660   0.766   6.490   4.750
 1664W        W 2661   6.610   2.008   7.665
 1665W        W 2662   5.943   7.490   2.121
 1666W        W 2663   3.714   6.869   0.295
 1667W        W 2664   4.883   0.308   0.446
 1668W        W 2665   2.308   3.787   7.320
 1669W        W 2666   2.179   4.201   5.958
 1670W        W 2667   4.270   4.141   6.190
 1671W        W 2668   2.951   1.450   3.834
 1672W        W 2669   1.573   0.384   4.582
 1673W        W 2670   1.215   3.061   5.914
 1674W        W 2671   1.364   0.711   1.909
 1675W        W 2672   0.721   5.963   5.409
 1676W        W 2673   0.454   0.381   2.065
 1677W        W 2674   2.170   4.913   3.719
 1678W        W 2675   5.205   3.388   0.588
 1679W        W 2676   4.047   6.348   3.892
 1680W        W 2677   4.296   3.258   4.496
 1681W        W 2678   5.036   3.868   1.023
 1682W        W 2679   2.112   6.221   4.236
 1683W        W 2680   3.852   3.025   1.763
 1684W        W 2681   6.383   1.554   7.511
 1685W        W 2682   3.671   7.465   4.715
 1686W        W 2683   4.329   4.651   0.978
 1687W        W 2684   6.255   2.020   4.540
 1688W        W 2685   0.548   2.462   1.569
 1689W        W 2686   4.487   5.047   1.235
 1690W        W 2687   2.172   6.763   0.433
 1691W        W 2688   2.230   5.879   0.403
 1692W        W 2689   1.522   4.102   4.276
 1693W        W 2690   0.988   3.514   5.086
 1694W        W 2691   2.072   5.509   5.415
 1695W        W 2692   6.074   4.177   2.809
 1696W        W 2693   4.080   4.237   6.683
 1697W        W 2694   6.735   0.824   0.649
 1698W        W 2695   4.665   1.165   0.297
 1699W        W 2696   4.929   5.654   6.654
 1700W        W 2697   4.505   1.092   6.669
 1701W        W 2698   7.285   7.605   3.871
 1702W        W 2699   3.982   4.589   2.126
 1703W        W 2700   5.631   0.344   2.737
 1704W        W 2701   5.580   7.423   4.392
 1705W        W 2702   3.972   0.976   2.861
 1706W        W 2703   7.447   6.249   5.807
 1707W        W 2704   2.034   0.786   1.824
 1708W        W 2705   7.803   0.754   4.114
 1709W        W 2706   4.717   4.169   0.270
 1710W        W 2707   0.612   7.069   7.615
 1711W        W 2708   2.352   5.459   0.670
 1712W        W 2709   1.368   7.756   1.100
 1713W        W 2710   0.932   1.536   7.806
 1714W        W 2711   1.355   7.960   7.427
 1715W        W 2712   5.969   2.937   7.246
 1716W        W 2713   3.856   3.053   6.327
 1717W        W 2714   2.370   6.774   1.299
 1718W        W 2715   4.830   1.667   0.222
 1719W        W 2716   7.390   6.099   1.076
 1720W        W 2717   3.657   1.297   6.978
 1721W        W 2718   4.447   4.458   4.385
 1722W        W 2719   6.983   6.902   2.143
 1723W        W 2720   3.032   2.300   0.911
 1724W        W 2721   3.076   6.488   3.479
 1725W        W 2722   3.312   3.741   7.089
 1726W        W 2723   3.918   2.826   0.213
 1727W        W 2724   4.656   6.791   7.052
 1728W        W 2725   7.464   4.337   1.413
 1729W        W 2726   1.634   1.361   7.526
 1730W        W 2727   6.781   5.229   7.787
 1731W        W 2728   3.539   2.936   6.742
 1732W        W 2729   0.574   4.829   6.865
 1733W        W 2730   0.809   6.249   6.416
 1734W        W 2731   1.505   1.445   5.910
 1735W        W 2732   2.334   4.612   3.045
 1736W        W 2733   2.523   3.767   3.990
 1737W        W 2734   5.718   6.797   7.143
 1738W        W 2735   4.141   2.110   4.654
 1739W        W 2736   3.156   3.795   2.145
 1740W        W 2737   7.337   2.077   0.571
 1741W        W 2738   7.699   6.299   0.657
 1742W        W 2739   5.039   2.898   5.793
 1743W        W 2740   6.321   3.321   0.828
 1744W        W 2741   4.276   5.978   5.638
 1745W        W 2742   1.000   2.528   3.516
 1746W        W 2743   5.976   1.385   1.665
 1747W        W 2744   2.449   1.452   6.961
 1748W        W 2745   6.953   3.751   4.740
 1749W        W 2746   3.286   7.186   5.262
 1750W        W 2747   3.228   1.384   4.333
 1751W        W 2748   1.714   7.015   3.110
 1752W        W 2749   4.507   1.992   3.671
 1753W        W 2750   2.732   1.795   4.676
 1754W        W 2751   6.096   7.198   1.694
 1755W        W 2752   3.501   5.123   1.203
 1756W        W 2753   0.218   3.341   0.548
 1757W        W 2754   1.149   1.280   0.176
 1758W        W 2755   6.651   5.012   3.663
 1759W        W 2756   2.243   6.374   6.846
 1760W        W 2757   3.839   5.018   1.902
 1761W        W 2758   2.236   1.807   3.504
 1762W        W 2759   6.465   4.263   1.682
 1763W        W 2760   4.609   3.604   7.491
 1764W        W 2761   0.145   7.014   7.565
 1765W        W 2762   6.803   1.985   6.028
 1766W        W 2763   5.795   7.642   5.286
 1767W        W 2764   1.076   6.421   0.699
 1768W        W 2765   4.283   4.278   0.635
 1769W        W 2766   0.041   3.567   4.054
 1770W        W 2767   7.584   1.423   3.453
 1771W        W 2768   5.750   0.903   2.899
 1772W        W 2769   5.680   3.808   3.481
 1773W        W 2770   6.958   3.903   5.267
 1774W        W 2771   1.268   3.395   4.717
 1775W        W 2772   4.620   4.195   1.225
 1776W        W 2773   0.701   2.712   7.109
 1777W        W 2774   4.886   3.186   5.348
 1778W        W 2775   3.319   6.605   1.799
 1779W        W 2776   0.096   0.840   5.805
 1780W        W 2777   3.081   6.574   6.422
 1781W        W 2778   0.478   5.827   0.451
 1782W        W 2779   5.625   4.828   4.497
 1783W        W 2780   1.130   4.680   3.813
 1784W        W 2781   5.034   5.779   4.941
 1785W        W 2782   0.993   4.627   2.170
 1786W        W 2783   1.239   3.952   2.832
 1787W        W 2784   4.080   1.861   5.925
 1788W        W 2785   0.039   1.014   4.501
 1789W        W 2786   1.488   3.470   6.015
 1790W        W 2787   5.521   7.260   0.821
 1791W        W 2788   1.089   6.075   1.719
 1792W        W 2789   4.371   5.161   7.115
 1793W        W 2790   2.051   0.698   1.134
 1794W        W 2791   3.764   1.533   2.223
 1795W        W 2792   7.117   4.665   0.600
 1796W        W 2793   5.474   0.387   4.764
 1797W        W 2794   7.461   4.369   3.499
 1798W        W 2795   5.084   2.527   6.522
 1799W        W 2796   2.245   1.882   6.034
 1800W        W 2797   1.216   2.837   3.160
 1801W        W 2798   7.474   4.896   3.837
 1802W        W 2799   0.162   5.335   3.125
 1803W        W 2800   0.639   0.516   3.984
 1804W        W 2801   5.772   5.408   1.892
 1805W        W 2802   0.563   6.360   6.866
 1806W        W 2803   0.231   0.396   6.987
 1807W        W 2804   4.848   2.928   6.281
 1808W        W 2805   1.862   5.139   2.330
 1809W        W 2806   5.347   1.805   7.285
 1810W        W 2807   5.484   5.382   1.431
 1811W        W 2808   4.147   1.825   2.859
 1812W        W 2809   2.121   5.639   6.736
 1813W        W 2810   5.135   4.834   0.711
 1814W        W 2811   3.278   2.746   0.980
 1815W        W 2812   0.910   2.543   2.820
 1816W        W 2813   7.288   0.628   2.954
 1817W        W 2814   5.340   0.979   6.624
 1818W        W 2815   6.087   0.257   5.507
 1819W        W 2816   1.905   5.102   4.144
 1820W        W 2817   1.514   6.414   4.897
 1821W        W 2818   3.148   2.064   6.582
 1822W        W 2819   7.590   4.065   6.029
 1823W        W 2820   7.778   2.212   3.494
 1824W        W 2821   2.633   6.592   6.671
 1825W        W 2822   7.014   0.758   5.575
 1826W        W 2823   3.049   3.194   0.397
 1827W        W 2824   7.161   2.308   6.846
 1828W        W 2825   5.751   4.509   2.904
 1829W        W 2826   1.516   6.114   0.282
 1830W        W 2827   0.508   3.635   5.074
 1831W        W 2828   6.622   0.755   5.958
 1832W        W 2829   1.246   4.714   4.776
 1833W        W 2830   2.197   0.056   1.894
 1834W        W 2831   3.004   6.184   6.099
 1835W        W 2832   1.817   4.992   1.822
 1836W        W 2833   4.865   2.099   6.601
 1837W        W 2834   2.298   0.101   5.777
 1838W        W 2835   4.674   1.634   4.049
 1839W        W 2836   6.648   5.476   3.956
 1840W        W 2837   3.348   5.392   4.159
 1841W        W 2838   6.829   1.081   2.116
 1842W        W 2839   0.250   5.444   2.615
 1843W        W 2840   2.171   3.129   1.158
 1844W        W 2841   0.761   5.834   1.365
 1845W        W 2842   6.924   5.663   7.516
 1846W        W 2843   0.252   6.321   5.505
 1847W        W 2844   0.999   1.575   1.240
 1848W        W 2845   2.669   5.857   0.711
 1849W        W 2846   2.109   6.761   4.220
 1850W        W 2847   1.855   0.008   4.644
 1851W        W 2848   1.808   0.282   6.695
 1852W        W 2849   4.581   3.576   0.203
 1853W        W 2850   7.166   7.340   7.073
 1854W        W 2851   4.955   7.670   5.810
 1855W        W 2852   6.068   6.120   1.895
 1856W        W 2853   3.845   4.224   0.864
 1857W        W 2854   4.206   1.064   4.467
 1858W        W 2855   3.553   7.069   3.098
 1859W        W 2856   6.828   2.538   2.613
 1860W        W 2857   7.382   1.826   7.628
 1861W        W 2858   7.585   2.101   4.553
 1862W        W 2859   0.652   1.996   3.002
 1863W        W 2860   1.988   3.482   3.790
 1864W        W 2861   6.021   2.005   3.662
 1865W        W 2862   3.232   3.637   1.184
 1866W        W 2863   7.208   6.114   2.773
 1867W        W 2864   2.721   6.087   2.596
 1868W        W 2865   2.496   3.248   1.568
 1869W        W 2866   5.125   4.333   6.740
 1870W        W 2867   3.246   3.966   4.592
 1871W        W 2868   4.933   3.135   0.230
 1872W        W 2869   5.919   0.474   3.160
 1873W        W 2870   2.226   5.983   3.793
 1874W        W 2871   3.987   5.360   6.617
 1875W        W 2872   6.694   0.054   2.632
 1876W        W 2873   4.480   4.619   1.488
 1877W        W 2874   7.046   1.351   2.748
 1878W        W 2875   3.568   5.426   3.695
 1879W        W 2876   2.377   6.324   2.837
 1880W        W 2877   2.756   1.468   7.538
 1881W        W 2878   2.851   1.354   4.767
 1882W        W 2879   5.550   0.934   0.903
 1883W        W 2880   2.230   4.743   2.211
 1884W        W 2881   1.994   3.242   5.618
 1885W        W 2882   7.504   0.718   2.275
 1886W        W 2883   4.484   4.262   1.770
 1887W        W 2884   2.129   7.321   4.267
 1888W        W 2885   1.609   5.640   1.037
 1889W        W 2886   6.337   6.748   3.548
 1890W        W 2887   2.731   3.539   2.157
 1891W        W 2888   4.734   1.451   7.433
 1892W        W 2889   7.606   6.997   3.671
 1893W        W 2890   5.458   7.250   7.553
 1894W        W 2891   5.494   0.598   4.215
 1895W        W 2892   4.716   6.765   3.543
 1896W        W 2893   1.042   4.241   4.080
 1897W        W 2894   7.744   3.892   3.563
 1898W        W 2895   0.779   0.999   0.453
 1899W        W 2896   5.931   6.818   6.623
 1900W        W 2897   1.600   0.992   1.243
 1901W        W 2898   1.279   7.200   7.412
 1902W        W 2899   2.386   7.083   7.388
 1903W        W 2900   3.090   7.656   1.864
 1904W        W 2901   4.389   6.038   6.102
 1905W        W 2902   3.083   3.534   2.502
 1906W        W 2903   1.068   6.386   6.983
 1907W        W 2904   5.890   4.705   6.356
 1908W        W 2905   1.229   0.181   0.542
 1909W        W 2906   1.669   5.554   4.272
 1910W        W 2907   1.354   1.459   6.841
 1911W        W 2908   1.082   0.725   7.076
 1912W        W 2909   0.538   5.265   0.141
 1913W        W 2910   6.805   6.437   2.152
 1914W        W 2911   7.790   7.073   6.995
 1915W        W 2912   7.244   0.813   4.263
 1916W        W 2913   5.303   5.041   3.127
 1917W        W 2914   0.376   5.804   6.950
 1918W        W 2915   1.421   1.628   3.957
 1919W        W 2916   0.104   6.058   0.834
 1920W        W 2917   5.507   5.082   5.500
 1921W        W 2918   3.947   3.026   4.696
 1922W        W 2919   5.989   6.834   2.167
 1923W        W 2920   1.529   5.814   1.707
 1924W        W 2921   6.769   6.851   5.832
 1925W        W 2922   6.058   0.478   4.867
 1926W        W 2923   4.480   1.822   4.931
 1927W        W 2924   4.725   0.042   3.589
 1928W        W 2925   7.475   1.578   0.488
 1929W        W 2926   3.558   2.223   5.276
 1930W        W 2927   1.804   0.351   5.506
 1931W        W 2928   6.088   4.661   1.547
 1932W        W 2929   5.630   6.787   1.121
 1933W        W 2930   4.373   0.793   0.964
 1934W        W 2931   4.092   1.777   3.399
 1935W        W 2932   0.644   2.928   1.359
 1936W        W 2933   6.453   3.035   7.293
 1937W        W 2934   6.258   2.288   0.773
 1938W        W 2935   5.886   0.027   5.063
 1939W        W 2936   0.372   2.585   6.091
 1940W        W 2937   0.018   7.813   7.121
 1941W        W 2938   7.154   1.682   3.069
 1942W        W 2939   1.773   5.616   6.378
 1943W        W 2940   1.019   1.694   5.050
 1944W        W 2941   2.013   0.075   6.290
 1945W        W 2942   7.173   7.619   3.381
 1946W        W 2943   2.583   0.053   0.162
 1947W        W 2944   2.198   3.979   4.941
 1948W        W 2945   7.267   2.039   4.888
 1949W        W 2946   5.544   1.009   4.693
 1950W        W 2947   1.641   7.805   5.591
 1951W        W 2948   5.860   1.826   3.177
 1952W        W 2949   4.464   2.025   0.416
 1953W        W 2950   1.119   1.322   1.653
 1954W        W 2951   6.616   3.000   2.510
 1955W        W 2952   1.498   6.300   7.258
 1956W        W 2953   7.880   4.695   2.447
 1957W        W 2954   1.089   0.951   6.147
 1958W        W 2955   7.814   6.561   6.840
 1959W        W 2956   3.399   1.465   7.873
 1960W        W 2957   4.192   6.397   4.677
 1961W        W 2958   0.905   2.939   1.780
 1962W        W 2959   6.565   5.266   1.696
 1963W        W 2960   2.230   5.745   7.698
 1964W        W 2961   2.942   1.370   0.471
 1965W        W 2962   7.490   3.705   5.539
 1966W        W 2963   7.928   7.158   1.884
 1967W        W 2964   3.392   6.196   5.279
 1968W        W 2965   6.058   4.792   2.478
 1969W        W 2966   2.781   0.949   5.994
 1970W        W 2967   6.084   7.280   4.401
 1971W        W 2968   6.257   2.546   7.049
 1972W        W 2969   4.510   0.641   0.463
 1973W        W 2970   3.231   4.870   3.951
 1974W        W 2971   2.786   2.278   2.540
 1975W        W 2972   1.111   5.001   6.637
 1976W        W 2973   1.914   4.505   0.423
 1977W        W 2974   4.808   0.959   5.238
 1978W        W 2975   6.547   1.250   2.513
 1979W        W 2976   3.953   4.801   4.660
 1980W        W 2977   3.942   5.517   7.113
 1981W        W 2978   2.064   5.285   4.671
 1982W        W 2979   0.980   5.934   6.746
 1983W        W 2980   2.474   4.554   3.569
 1984W        W 2981   7.683   7.643   1.674
 1985W        W 2982   4.058   2.877   5.157
 1986W        W 2983   0.227   0.752   3.516
 1987W        W 2984   2.263   0.605   6.523
 1988W        W 2985   0.232   0.842   4.000
 1989W        W 2986   2.121   3.572   5.233
 1990W        W 2987   2.684   4.019   1.933
 1991W        W 2988   1.815   1.539   3.692
 1992W        W 2989   6.948   5.099   0.420
 1993W        W 2990   4.020   3.477   7.739
 1994W        W 2991   4.912   7.167   6.819
 1995W        W 2992   7.252   3.724   3.317
 1996W        W 2993   0.162   1.208   6.194
 1997W        W 2994   4.949   4.012   3.649
 1998W        W 2995   0.939   2.608   1.054
 1999W        W 2996   6.930   3.290   1.548
 2000W        W 2997   5.167   2.924   7.698
 2001W        W 2998   6.875   2.443   7.941
 2002W        W 2999   2.224   7.372   2.325
 2003W        W 3000   1.354   6.380   3.694
 2004W        W 3001   0.232   0.326   0.117
 2005W        W 3002   6.595   7.303   4.501
 2006W        W 3003   7.065   3.438   6.826
 2007W        W 3004   2.483   2.831   2.485
 2008W        W 3005   4.043   3.532   1.679
 2009W        W 3006   7.006   7.441   1.834
 2010W        W 3007   2.497   5.128   0.319
 2011W        W 3008   5.769   2.356   6.202
 2012W        W 3009   4.160   1.781   2.363
 2013W        W 3010   5.229   1.415   3.787
 2014W        W 3011   7.013   5.180   2.507
 2015W        W 3012   4.945   3.942   1.648
 2016W        W 3013   6.393   6.526   5.815
 2017W        W 3014   2.329   1.970   4.965
 2018W        W 3015   1.610   4.718   1.373
 2019W        W 3016   1.421   4.692   0.411
 2020W        W 3017   5.711   2.009   6.919
 2021W        W 3018   3.969   2.968   3.260
 2022W        W 3019   0.714   2.734   4.520
 2023W        W 3020   0.895   3.346   2.040
 2024W        W 3021   3.964   0.095   7.596
 2025W        W 3022   6.964   1.535   2.299
 2026W        W 3023   1.916   6.162   6.509
 2027W        W 3024   0.810   3.740   4.701
 2028W        W 3025   3.886   2.596   6.532
 2029W        W 3026   4.173   0.688   4.726
 2030W        W 3027   6.142   3.025   2.139
 2031W        W 3028   0.879   4.754   4.268
 2032W        W 3029   7.896   6.912   3.206
 2033W        W 3030   5.367   4.123   7.115
 2034W        W 3031   6.887   0.308   4.326
 2035W        W 3032   7.839   1.862   0.694
 2036W        W 3033   6.764   7.893   6.301
 2037W        W 3034   0.456   6.649   3.371
 2038W        W 3035   6.847   7.061   6.775
 2039W        W 3036   6.100   5.880   4.204
 2040W        W 3037   5.428   4.338   6.311
 2041W        W 3038   0.696   2.593   5.201
 2042W        W 3039   4.785   7.683   3.005
 2043W        W 3040   3.725   7.776   2.289
 2044W        W 3041   3.485   1.510   4.750
 2045W        W 3042   6.052   5.610   7.202
 2046W        W 3043   5.622   2.695   7.608
 2047W        W 3044   3.345   1.759   6.980
 2048W        W 3045   7.265   3.383   4.131
 2049W        W 3046   0.897   2.437   1.927
 2050W        W 3047   3.267   7.841   2.957
 2051W        W 3048   4.155   3.388   0.822
 2052W        W 3049   1.011   4.268   3.553
 2053W        W 3050   4.041   0.098   2.881
 2054W        W 3051   5.980   0.222   6.923
 2055W        W 3052   1.931   5.643   1.890
 2056W        W 3053   5.361   5.747   4.392
 2057W        W 3054   5.443   6.904   6.586
 2058W        W 3055   5.150   4.302   1.191
 2059W        W 3056   7.346   5.819   4.287
 2060W        W 3057   0.950   7.602   7.897
 2061W        W 3058   2.175   4.301   4.528
 2062W        W 3059   4.747   2.482   2.916
 2063W        W 3060   7.028   7.809   1.031
 2064W        W 3061   5.490   1.311   1.813
 2065W        W 3062   1.715   3.751   2.946
 2066W        W 3063   1.969   0.800   7.492
 2067W        W 3064   5.755   4.057   4.010
 2068W        W 3065   3.614   5.681   6.101
 2069W        W 3066   6.007   2.726   6.585
 2070W        W 3067   5.124   7.519   0.590
 2071W        W 3068   0.631   2.561   6.552
 2072W        W 3069   2.343   4.822   4.155
 2073W        W 3070   0.904   0.203   6.894
 2074W        W 3071   6.977   2.464   1.216
 2075W        W 3072   4.050   4.918   1.443
 2076W        W 3073   1.003   7.335   3.802
 2077W        W 3074   7.680   2.976   3.495
 2078W        W 3075   6.036   4.268   4.576
 2079W        W 3076   7.041   7.097   7.540
 2080W        W 3077   0.184   4.545   7.415
 2081W        W 3078   2.768   0.619   3.835
 2082W        W 3079   5.449   2.810   6.303
 2083W        W 3080   0.665   0.563   4.547
 2084W        W 3081   1.060   6.492   1.365
 2085W        W 3082   3.691   5.193   2.841
 2086W        W 3083   6.516   0.704   5.207
 2087W        W 3084   7.109   0.781   0.947
 2088W        W 3085   7.685   3.752   0.675
 2089W        W 3086   0.872   0.546   1.706
 2090W        W 3087   7.572   0.771   0.087
 2091W        W 3088   3.516   5.082   0.621
 2092W        W 3089   5.756   2.698   0.226
 2093W        W 3090   6.722   6.583   0.658
 2094W        W 3091   1.899   2.264   4.275
 2095W        W 3092   6.558   6.847   0.143
 2096W        W 3093   0.443   7.415   7.157
 2097W        W 3094   1.786   7.842   0.605
 2098W        W 3095   1.247   2.453   5.273
 2099W        W 3096   7.451   7.665   4.820
 2100W        W 3097   5.907   4.243   7.130
 2101W        W 3098   0.806   3.828   6.025
 2102W        W 3099   4.331   5.525   0.889
 2103W        W 3100   2.074   1.051   0.724
 2104W        W 3101   7.492   0.128   5.132
 2105W        W 3102   5.073   7.462   4.394
 2106W        W 3103   6.704   5.388   4.885
 2107W        W 3104   5.363   1.553   5.650
 2108W        W 3105   5.110   0.027   7.707
 2109W        W 3106   5.725   3.801   4.419
 2110W        W 3107   7.317   7.223   4.236
 2111W        W 3108   1.492   0.154   5.789
 2112W        W 3109   2.571   4.005   2.386
 2113W        W 3110   1.078   7.080   2.087
 2114W        W 3111   0.613   0.002   0.178
 2115W        W 3112   6.944   3.436   0.304
 2116W        W 3113   2.419   6.278   0.534
 2117W        W 3114   2.330   4.349   0.738
 2118W        W 3115   5.207   3.082   6.648
 2119W        W 3116   3.010   2.529   6.167
 2120W        W 3117   1.520   3.293   3.084
 2121W        W 3118   5.039   4.198   2.823
 2122W        W 3119   4.629   6.282   1.933
 2123W        W 3120   4.204   0.818   0.112
 2124W        W 3121   6.707   0.517   4.802
 2125W        W 3122   1.565   6.430   4.329
 2126W        W 3123   0.408   0.875   3.054
 2127W        W 3124   6.818   5.697   1.894
 2128W        W 3125   6.733   6.893   7.191
 2129W        W 3126   5.080   6.180   0.174
 2130W        W 3127   1.728   0.347   1.988
 2131W        W 3128   1.136   2.339   1.479
 2132W        W 3129   4.916   3.628   2.192
 2133W        W 3130   4.574   7.926   4.492
 2134W        W 3131   6.431   2.981   4.706
 2135W        W 3132   4.453   1.194   1.762
 2136W        W 3133   3.291   6.397   4.633
 2137W        W 3134   6.050   6.236   2.412
 2138W        W 3135   3.663   7.116   1.159
 2139W        W 3136   0.132   4.937   6.495
 2140W        W 3137   5.599   6.659   2.415
 2141W        W 3138   7.719   2.776   5.212
 2142W        W 3139   6.565   1.234   0.507
 2143W        W 3140   6.632   4.112   7.472
 2144W        W 3141   6.335   5.825   4.635
 2145W        W 3142   1.793   7.700   4.061
 2146W        W 3143   0.518   0.560   5.704
 2147W        W 3144   3.605   6.627   0.859
 2148W        W 3145   7.566   3.554   1.996
 2149W        W 3146   5.644   4.654   5.854
 2150W        W 3147   7.455   4.821   1.507
 2151W        W 3148   7.360   2.670   0.803
 2152W        W 3149   7.054   1.237   0.668
 2153W        W 3150   0.305   2.608   4.757
 2154W        W 3151   3.042   6.882   7.897
 2155W        W 3152   4.836   0.914   2.460
 2156W        W 3153   4.485   1.081   3.947
 2157W        W 3154   7.461   0.564   5.467
 2158W        W 3155   1.196   2.100   3.814
 2159W        W 3156   2.814   2.144   1.301
 2160W        W 3157   7.560   2.897   0.353
 2161W        W 3158   3.531   2.557   3.964
 2162W        W 3159   4.115   3.401   3.527
 2163W        W 3160   4.010   0.363   7.172
 2164W        W 3161   2.665   1.281   2.603
 2165W        W 3162   4.643   2.299   1.643
 2166W        W 3163   5.734   6.775   3.586
 2167W        W 3164   3.903   3.805   0.033
 2168W        W 3165   1.245   1.892   7.627
 2169W        W 3166   6.143   5.036   1.992
 2170W        W 3167   1.369   0.912   4.711
 2171W        W 3168   7.712   2.916   1.059
 2172W        W 3169   6.502   4.965   6.060
 2173W        W 3170   3.713   3.025   7.632
 2174W        W 3171   1.917   1.758   4.161
 2175W        W 3172   2.016   3.438   6.221
 2176W        W 3173   6.293   5.731   2.574
 2177W        W 3174   6.605   0.380   5.674
 2178W        W 3175   1.946   6.233   2.305
 2179W        W 3176   6.194   2.331   4.114
 2180W        W 3177   6.335   2.501   4.544
 2181W        W 3178   7.197   7.111   5.707
 2182W        W 3179   3.845   7.229   3.597
 2183W        W 3180   3.094   5.030   7.484
 2184W        W 3181   7.127   5.552   6.250
 2185W        W 3182   6.832   3.459   3.281
 2186W        W 3183   7.644   1.662   4.360
 2187W        W 3184   1.927   5.742   3.512
 2188W        W 3185   6.951   5.347   4.430
 2189W        W 3186   4.527   7.290   3.814
 2190W        W 3187   4.809   7.388   6.248
 2191W        W 3188   1.508   0.918   0.706
 2192W        W 3189   2.419   6.193   7.567
 2193W        W 3190   1.471   1.984   5.645
 2194W        W 3191   6.896   5.240   6.613
 2195W        W 3192   5.987   6.706   4.450
 2196W        W 3193   6.414   5.671   0.829
 2197W        W 3194   4.150   6.563   3.433
 2198W        W 3195   1.709   3.452   2.051
 2199W        W 3196   5.853   5.479   3.467
 2200W        W 3197   5.027   6.128   3.666
 2201W        W 3198   1.676   0.131   1.333
 2202W        W 3199   6.952   7.493   2.838
 2203W        W 3200   1.542   2.613   4.929
 2204W        W 3201   6.478   7.410   2.230
 2205W        W 3202   2.854   6.739   5.971
 2206W        W 3203   6.433   1.727   2.370
 2207W        W 3204   3.476   6.216   6.247
 2208W        W 3205   4.144   1.086   0.563
 2209W        W 3206   7.483   5.725   2.533
 2210W        W 3207   6.695   3.304   5.453
 2211W        W 3208   5.764   7.248   1.329
 2212W        W 3209   4.039   0.591   4.170
 2213W        W 3210   2.477   6.826   2.954
 2214W        W 3211   5.555   3.660   3.024
 2215W        W 3212   2.376   4.450   5.033
 2216W        W 3213   2.247   4.159   6.946
 2217W        W 3214   5.390   3.030   1.382
 2218W        W 3215   6.106   2.278   6.644
 2219W        W 3216   4.984   1.447   5.905
 2220W        W 3217   7.443   7.093   3.193
 2221W        W 3218   5.739   3.897   4.912
 2222W        W 3219   1.410   4.859   2.240
 2223W        W 3220   4.997   3.088   4.195
 2224W        W 3221   2.423   0.289   3.616
 2225W        W 3222   1.714   3.865   5.086
 2226W        W 3223   6.123   4.246   6.524
 2227W        W 3224   5.037   5.659   3.284
 2228W        W 3225   7.133   3.427   5.196
 2229W        W 3226   3.815   5.509   3.243
 2230W        W 3227   1.780   2.873   2.126
 2231W        W 3228   3.029   1.021   7.718
 2232W        W 3229   6.670   6.111   7.621
 2233W        W 3230   7.219   4.737   3.237
 2234W        W 3231   7.135   7.534   6.400
 2235W        W 3232   6.875   3.095   0.971
 2236W        W 3233   5.652   6.236   1.100
 2237W        W 3234   3.255   7.550   6.398
 2238W        W 3235   3.218   6.107   1.907
 2239W        W 3236   1.544   0.199   5.038
 2240W        W 3237   1.450   0.460   4.087
 2241W        W 3238   2.841   6.672   1.246
 2242W        W 3239   1.278   3.882   4.863
 2243W        W 3240   5.001   5.580   7.208
 2244W        W 3241   5.764   7.175   5.399
 2245W        W 3242   4.330   1.230   4.911
 2246W        W 3243   3.341   5.430   3.134
 2247W        W 3244   5.820   0.175   0.058
 2248W        W 3245   0.478   6.759   5.044
 2249W        W 3246   4.043   5.097   0.883
 2250W        W 3247   5.586   1.293   3.450
 2251W        W 3248   0.690   5.426   4.971
 2252W        W 3249   2.518   0.477   4.889
 2253W        W 3250   3.209   1.862   4.540
 2254W        W 3251   1.488   5.189   6.388
 2255W        W 3252   3.809   7.745   2.842
 2256W        W 3253   6.523   5.783   7.263
 2257W        W 3254   3.752   0.503   6.073
 2258W        W 3255   7.441   5.738   4.790
 2259W        W 3256   0.513   1.830   4.811
 2260W        W 3257   4.783   6.740   2.770
 2261W        W 3258   3.101   5.711   1.584
 2262W        W 3259   3.629   3.848   0.435
 2263W        W 3260   0.525   2.920   5.693
 2264W        W 3261   4.198   2.082   1.728
 2265W        W 3262   2.406   5.881   1.700
 2266W        W 3263   1.931   6.158   1.784
 2267W        W 3264   2.208   0.347   1.461
 2268W        W 3265   5.854   4.893   3.268
 2269W        W 3266   1.214   5.196   5.003
 2270W        W 3267   2.459   0.814   2.590
 2271W        W 3268   6.746   2.628   6.981
 2272W        W 3269   7.678   3.352   3.801
 2273W        W 3270   3.599   4.221   3.202
 2274W        W 3271   4.835   6.475   6.102
 2275W        W 3272   2.079   7.093   2.774
 2276W        W 3273   0.333   0.955   2.018
 2277W        W 3274   6.668   1.202   5.647
 2278W        W 3275   3.288   3.576   0.228
 2279W        W 3276   5.373   4.605   5.382
 2280W        W 3277   2.251   4.376   7.539
 2281W        W 3278   4.640   3.769   4.008
 2282W        W 3279   1.031   7.581   2.617
 2283W        W 3280   1.216   3.720   3.284
 2284W        W 3281   6.590   5.412   2.234
 2285W        W 3282   6.677   7.587   0.570
 2286W        W 3283   4.944   2.586   4.064
 2287W        W 3284   5.051   0.339   4.028
 2288W        W 3285   3.650   0.017   5.881
 2289W        W 3286   1.544   5.166   0.676
 2290W        W 3287   4.218   7.699   3.800
 2291W        W 3288   0.378   6.253   4.988
 2292W        W 3289   7.775   6.169   2.697
 2293W        W 3290   6.416   1.033   4.864
 2294W        W 3291   6.368   3.887   6.190
 2295W        W 3292   1.510   2.028   4.292
 2296W        W 3293   0.429   1.961   2.520
 2297W        W 3294   4.657   2.781   7.385
 2298W        W 3295   1.677   1.401   4.370
 2299W        W 3296   2.210   7.171   6.605
 2300W        W 3297   2.523   4.450   1.529
 2301W        W 3298   6.936   1.818   5.127
 2302W        W 3299   6.375   5.073   3.197
 2303W        W 3300   2.842   3.989   1.144
 2304W        W 3301   1.386   7.552   7.050
 2305W        W 3302   3.608   5.888   6.603
 2306W        W 3303   3.419   3.750   6.563
 2307W        W 3304   2.886   6.345   3.040
 2308W        W 3305   2.489   5.551   3.482
 2309W        W 3306   6.005   6.215   4.596
 2310W        W 3307   4.665   0.310   2.633
 2311W        W 3308   0.728   5.926   4.751
 2312W        W 3309   7.587   2.137   1.851
 2313W        W 3310   1.582   1.811   6.262
 2314W        W 3311   7.780   3.028   2.000
 2315W        W 3312   5.125   4.773   4.623
 2316W        W 3313   5.635   0.753   5.704
 2317W        W 3314   6.228   5.542   5.016
 2318W        W 3315   2.889   1.781   2.951
 2319W        W 3316   6.794   5.913   0.044
 2320W        W 3317   3.796   7.309   6.534
 2321W        W 3318   3.983   2.134   7.231
 2322W        W 3319   3.016   0.458   6.063
 2323W        W 3320   4.167   2.570   2.006
 2324W        W 3321   7.516   3.142   2.407
 2325W        W 3322   6.396   3.310   4.315
 2326W        W 3323   4.122   0.905   3.715
 2327W        W 3324   6.085   6.156   1.349
 2328W        W 3325   5.216   2.380   5.041
 2329W        W 3326   3.280   5.508   2.105
 2330W        W 3327   2.648   4.766   7.577
 2331W        W 3328   6.948   5.027   1.369
 2332W        W 3329   1.845   4.741   3.263
 2333W        W 3330   7.701   6.138   2.143
 2334W        W 3331   5.475   5.899   7.382
 2335W        W 3332   1.669   4.319   6.824
 2336W        W 3333   3.161   6.835   0.380
 2337W        W 3334   4.757   3.484   4.378
 2338W        W 3335   0.737   3.278   4.419
 2339W        W 3336   2.713   1.525   3.347
 2340W        W 3337   4.017   1.925   0.666
 2341W        W 3338   2.654   5.614   5.578
 2342W        W 3339   0.277   2.676   4.247
 2343W        W 3340   0.895   0.387   2.244
 2344W        W 3341   1.253   7.497   6.562
 2345W        W 3342   0.079   3.171   7.051
 2346W        W 3343   1.473   0.910   7.377
 2347W        W 3344   5.721   2.465   5.275
 2348W        W 3345   2.497   2.480   7.671
 2349W        W 3346   7.149   4.594   1.848
 2350W        W 3347   7.420   6.188   3.252
 2351W        W 3348   2.365   4.870   1.741
 2352W        W 3349   4.668   2.637   5.943
 2353W        W 3350   0.714   0.625   1.251
 2354W        W 3351   6.093   2.588   7.528
 2355W        W 3352   0.735   2.176   3.923
 2356W        W 3353   2.472   4.007   7.906
 2357W        W 3354   0.124   0.319   5.971
 2358W        W 3355   3.785   5.977   1.942
 2359W        W 3356   6.416   1.162   0.953
 2360W        W 3357   0.616   5.456   4.477
 2361W        W 3358   6.089   6.457   7.037
 2362W        W 3359   4.021   0.525   1.183
 2363W        W 3360   6.944   0.792   2.590
 2364W        W 3361   0.982   5.379   3.104
 2365W        W 3362   1.874   6.790   5.058
 2366W        W 3363   7.388   7.790   0.654
 2367W        W 3364   5.809   3.002   6.001
 2368W        W 3365   5.939   0.068   0.571
 2369W        W 3366   5.789   1.072   3.986
 2370W        W 3367   1.422   7.697   1.736
 2371W        W 3368   0.399   6.776   7.109
 2372W        W 3369   2.339   1.238   5.069
 2373W        W 3370   0.562   5.079   2.993
 2374W        W 3371   0.048   2.331   1.604
 2375W        W 3372   5.876   3.898   5.409
 2376W        W 3373   1.970   3.726   1.046
 2377W        W 3374   6.328   3.468   2.389
 2378W        W 3375   7.739   4.039   4.773
 2379W        W 3376   7.054   3.440   6.324
 2380W        W 3377   0.449   6.542   6.282
 2381W        W 3378   3.318   0.495   0.563
 2382W        W 3379   4.597   5.111   0.743
 2383W        W 3380   6.973   7.115   6.179
 2384W        W 3381   3.531   5.749   1.316
 2385W        W 3382   5.920   3.782   2.504
 2386W        W 3383   1.503   1.777   7.208
 2387W        W 3384   6.714   0.337   0.696
 2388W        W 3385   3.046   5.043   3.254
 2389W        W 3386   3.563   3.407   1.516
 2390W        W 3387   0.611   1.831   6.543
 2391W        W 3388   6.870   7.807   7.817
 2392W        W 3389   1.387   1.882   1.261
 2393W        W 3390   0.260   2.685   6.922
 2394W        W 3391   1.723   7.499   2.662
 2395W        W 3392   5.693   3.337   6.945
 2396W        W 3393   1.849   1.647   2.752
 2397W        W 3394   0.535   3.169   6.935
 2398W        W 3395   4.471   3.153   5.026
 2399W        W 3396   1.766   0.051   7.825
 2400W        W 3397   2.558   7.414   1.910
 2401W        W 3398   0.105   3.608   2.334
 2402W        W 3399   0.006   4.725   1.240
 2403W        W 3400   5.667   1.540   7.806
 2404W        W 3401   5.573   7.132   2.179
 2405W        W 3402   3.560   7.734   1.169
 2406W        W 3403   7.490   5.391   5.845
 2407W        W 3404   6.955   5.023   1.962
 2408W        W 3405   2.977   3.056   5.062
 2409W        W 3406   6.805   5.598   0.408
 2410W        W 3407   7.418   0.932   6.603
 2411W        W 3408   6.976   0.385   5.312
 2412W        W 3409   7.733   5.711   0.834
 2413W        W 3410   2.811   0.996   3.451
 2414W        W 3411   1.947   3.795   2.443
 2415W        W 3412   0.812   1.661   2.568
 2416W        W 3413   3.529   3.205   7.190
 2417W        W 3414   4.083   5.937   0.694
 2418W        W 3415   5.164   0.648   5.404
 2419W        W 3416   4.376   6.682   0.408
 2420W        W 3417   1.649   6.723   0.546
 2421W        W 3418   3.604   2.147   6.891
 2422W        W 3419   1.018   7.369   0.304
 2423W        W 3420   0.497   7.269   5.866
 2424W        W 3421   1.307   0.519   7.608
 2425W        W 3422   3.632   4.877   5.559
 2426W        W 3423   1.813   1.007   5.984
 2427W        W 3424   6.402   2.012   1.215
 2428W        W 3425   6.800   6.619   4.339
 2429W        W 3426   7.448   2.473   3.769
 2430W        W 3427   5.906   1.622   7.385
 2431W        W 3428   5.255   0.737   2.779
 2432W        W 3429   1.573   6.450   1.006
 2433W        W 3430   5.969   5.424   0.189
 2434W        W 3431   2.864   7.593   2.671
 2435W        W 3432   2.968   3.367   1.743
 2436W        W 3433   0.361   1.744   7.038
 2437W        W 3434   5.133   6.178   1.843
 2438W        W 3435   5.234   1.069   5.671
 2439W        W 3436   6.980   4.215   0.385
 2440W        W 3437   6.265   4.616   0.497
 2441W        W 3438   0.693   2.947   6.170
 2442W        W 3439   5.365   5.581   1.020
 2443W        W 3440   5.735   7.279   4.881
 2444W        W 3441   0.565   5.424   2.066
 2445W        W 3442   0.652   7.721   6.337
 2446W        W 3443   4.213   6.881   7.181
 2447W        W 3444   5.180   2.272   4.394
 2448W        W 3445   6.424   0.415   7.258
 2449W        W 3446   3.671   0.622   3.031
 2450W        W 3447   2.970   3.943   0.026
 2451W        W 3448   1.914   5.865   0.026
 2452W        W 3449   7.019   2.481   5.075
 2453W        W 3450   5.348   3.596   5.300
 2454W        W 3451   2.742   3.623   7.659
 2455W        W 3452   2.320   0.459   7.355
 2456W        W 3453   7.126   4.794   0.006
 2457W        W 3454   2.188   4.181   5.445
 2458W        W 3455   4.994   5.218   1.131
 2459W        W 3456   2.401   7.662   2.614
 2460W        W 3457   2.248   3.767   3.332
 2461W        W 3458   2.496   0.292   6.236
 2462W        W 3459   2.027   6.950   7.004
 2463W        W 3460   5.732   7.474   3.623
 2464W        W 3461   7.351   5.460   0.594
 2465W        W 3462   4.112   5.575   5.922
 2466W        W 3463   6.792   3.656   4.180
 2467W        W 3464   4.207   2.737   1.044
 2468W        W 3465   2.364   0.408   5.367
 2469W        W 3466   1.558   7.899   6.714
 2470W        W 3467   4.589   4.633   0.505
 2471W        W 3468   7.105   2.168   5.639
 2472W        W 3469   6.606   0.809   6.475
 2473W        W 3470   3.922   1.346   3.645
 2474W        W 3471   7.095   3.638   1.883
 2475W        W 3472   3.593   1.170   1.919
 2476W        W 3473   2.097   5.184   6.334
 2477W        W 3474   1.702   3.344   5.098
 2478W        W 3475   5.229   7.800   4.676
 2479W        W 3476   3.425   4.146   7.431
 2480W        W 3477   4.772   6.931   2.233
 2481W        W 3478   4.193   1.589   4.560
 2482W        W 3479   4.005   6.727   5.289
 2483W        W 3480   0.075   6.754   4.087
 2484W        W 3481   5.718   2.274   3.918
 2485W        W 3482   5.662   4.097   6.666
 2486W        W 3483   3.058   2.220   2.966
 2487W        W 3484   5.589   7.199   3.195
 2488W        W 3485   5.912   6.695   5.431
 2489W        W 3486   6.210   6.125   0.825
 2490W        W 3487   4.046   4.061   1.727
 2491W        W 3488   3.890   2.319   1.078
 2492W        W 3489   5.753   5.306   4.319
 2493W        W 3490   5.437   7.804   5.547
 2494W        W 3491   7.499   0.765   1.802
 2495W        W 3492   2.671   1.025   0.761
 2496W        W 3493   1.379   4.820   5.301
 2497W        W 3494   0.570   7.420   0.092
 2498W        W 3495   7.607   1.091   5.214
 2499W        W 3496   1.402   5.197   2.583
 2500W        W 3497   5.216   4.017   4.122
 2501W        W 3498   0.181   7.594   3.207
 2502W        W 3499   0.159   5.154   6.984
 2503W        W 3500   5.437   1.667   5.133
 2504W        W 3501   1.156   7.763   4.077
 2505W        W 3502   2.675   1.722   1.055
 2506W        W 3503   6.451   5.179   0.423
 2507W        W 3504   1.880   6.525   1.425
 2508W        W 3505   0.325   7.020   6.262
 2509W        W 3506   4.205   2.435   0.133
 2510W        W 3507   3.630   3.316   3.366
 2511W        W 3508   2.681   5.839   6.015
 2512W        W 3509   1.880   3.799   7.031
 2513W        W 3510   1.731   4.155   1.392
 2514W        W 3511   6.251   4.524   3.358
 2515W        W 3512   6.189   2.807   3.303
 2516W        W 3513   2.589   2.262   0.769
 2517W        W 3514   0.083   7.937   2.788
 2518W        W 3515   1.427   7.550   7.745
 2519W        W 3516   7.312   3.500   2.806
 2520W        W 3517   2.446   2.640   0.448
 2521W        W 3518   0.281   1.747   3.311
 2522W        W 3519   5.383   6.156   3.094
 2523W        W 3520   3.305   6.341   6.872
 2524W        W 3521   5.276   7.496   3.361
 2525W        W 3522   3.836   4.279   7.706
 2526W        W 3523   4.001   7.482   5.566
 2527W        W 3524   1.161   0.759   2.502
 2528W        W 3525   4.167   6.508   5.791
 2529W        W 3526   2.758   4.150   3.712
 2530W        W 3527   3.474   1.128   1.159
 2531W        W 3528   1.960   1.695   1.705
 2532W        W 3529   7.498   5.787   5.313
 2533W        W 3530   3.669   1.598   1.698
 2534W        W 3531   6.566   6.957   1.403
 2535W        W 3532   5.279   4.300   5.811
 2536W        W 3533   3.566   6.301   0.415
 2537W        W 3534   5.530   4.333   4.443
 2538W        W 3535   1.692   2.810   0.502
 2539W        W 3536   3.939   6.346   6.518
 2540W        W 3537   5.311   5.943   1.339
 2541W        W 3538   4.580   5.062   2.598
 2542W        W 3539   1.036   2.117   4.309
 2543W        W 3540   1.007   4.147   7.490
 2544W        W 3541   2.507   5.349   1.600
 2545W        W 3542   5.623   3.214   3.584
 2546W        W 3543   4.043   7.312   6.964
 2547W        W 3544   4.386   1.266   6.179
 2548W        W 3545   6.120   0.530   5.931
 2549W        W 3546   7.751   4.845   6.838
 2550W        W 3547   0.706   3.205   5.310
 2551W        W 3548   3.636   5.054   7.798
 2552W        W 3549   2.852   5.828   2.154
 2553W        W 3550   1.063   1.896   1.708
 2554W        W 3551   3.314   3.757   3.485
 2555W        W 3552   3.992   2.676   3.703
 2556W        W 3553   7.847   6.382   4.938
 2557W        W 3554   7.272   5.695   3.401
 2558W        W 3555   1.524   2.580   4.421
 2559W        W 3556   6.971   1.765   6.738
 2560W        W 3557   3.514   5.623   2.727
 2561W        W 3558   5.407   0.866   7.115
 2562W        W 3559   7.586   2.940   2.819
 2563W        W 3560   6.937   2.368   2.131
 2564W        W 3561   2.582   6.225   0.985
 2565W        W 3562   5.544   1.766   3.837
 2566W        W 3563   2.931   3.060   2.293
 2567W        W 3564   1.123   7.188   4.267
 2568W        W 3565   2.894   2.756   0.642
 2569W        W 3566   4.837   1.539   3.198
 2570W        W 3567   6.963   6.473   7.093
 2571W        W 3568   4.966   7.599   3.900
 2572W        W 3569   0.876   7.198   7.053
 2573W        W 3570   5.157   6.276   1.024
 2574W        W 3571   6.893   5.071   5.193
 2575W        W 3572   5.243   7.000   3.580
 2576W        W 3573   7.417   4.170   5.291
 2577W        W 3574   3.974   5.042   3.227
 2578W        W 3575   7.155   6.183   7.506
 2579W        W 3576   7.773   5.127   4.943
 2580W        W 3577   6.335   5.809   0.360
 2581W        W 3578   4.672   6.359   0.959
 2582W        W 3579   7.732   1.634   1.085
 2583W        W 3580   4.285   1.510   0.373
 2584W        W 3581   6.059   7.050   0.013
 2585W        W 3582   2.436   1.738   1.533
 2586W        W 3583   0.779   4.868   6.282
 2587W        W 3584   3.260   4.584   3.289
 2588W        W 3585   1.338   5.068   4.095
 2589W        W 3586   4.436   4.952   4.700
 2590W        W 3587   5.545   2.630   5.819
 2591W        W 3588   1.404   2.020   2.185
 2592W        W 3589   5.132   2.349   6.064
 2593W        W 3590   2.704   7.130   1.074
 2594W        W 3591   0.081   4.084   7.220
 2595W        W 3592   2.168   1.323   7.575
 2596W        W 3593   1.284   0.581   5.247
 2597W        W 3594   3.938   2.545   4.599
 2598W        W 3595   6.564   4.721   1.683
 2599W        W 3596   1.892   7.075   6.058
 2600W        W 3597   3.305   6.248   3.908
 2601W        W 3598   2.539   1.081   3.998
 2602W        W 3599   2.725   4.810   0.696
 2603W        W 3600   7.445   5.691   7.374
 2604W        W 3601   1.779   5.837   7.500
 2605W        W 3602   5.602   1.385   0.253
 2606W        W 3603   5.429   3.434   7.437
 2607W        W 3604   4.773   4.473   2.067
 2608W        W 3605   6.054   0.955   2.444
 2609W        W 3606   6.928   6.967   5.344
 2610W        W 3607   4.544   4.298   2.798
 2611W        W 3608   7.754   2.915   4.730
 2612W        W 3609   1.968   1.488   6.143
 2613W        W 3610   3.397   2.205   7.298
 2614W        W 3611   6.586   7.082   1.879
 2615W        W 3612   4.848   0.703   3.729
 2616W        W 3613   2.348   4.055   1.148
 2617W        W 3614   1.020   6.960   7.857
 2618W        W 3615   0.508   2.250   4.451
 2619W        W 3616   5.181   0.446   6.438
 2620W        W 3617   4.795   2.756   5.034
 2621W        W 3618   3.099   7.176   5.902
 2622W        W 3619   5.938   5.882   3.728
 2623W        W 3620   2.627   2.178   0.225
 2624W        W 3621   1.382   2.455   5.771
 2625W        W 3622   5.668   0.645   2.311
 2626W        W 3623   7.350   7.728   2.054
 2627W        W 3624   1.239   2.793   6.385
 2628W        W 3625   4.636   2.873   3.803
 2629W        W 3626   6.603   2.841   0.006
 2630W        W 3627   0.430   5.011   7.394
 2631W        W 3628   0.116   2.283   0.522
 2632W        W 3629   7.716   4.485   2.925
 2633W        W 3630   3.340   2.351   1.299
 2634W        W 3631   6.099   2.473   1.796
 2635W        W 3632   7.255   5.264   7.623
 2636W        W 3633   5.504   6.736   7.705
 2637W        W 3634   5.202   0.037   2.373
 2638W        W 3635   7.401   2.665   2.003
 2639W        W 3636   4.008   3.318   0.342
 2640W        W 3637   3.132   4.363   5.842
 2641W        W 3638   5.062   5.024   3.872
 2642W        W 3639   0.352   3.961   6.317
 2643W        W 3640   4.134   6.265   2.040
 2644W        W 3641   4.965   1.280   1.954
 2645W        W 3642   3.070   7.349   3.021
 2646W        W 3643   5.671   5.060   2.273
 2647W        W 3644   4.417   5.805   3.064
 2648W        W 3645   0.969   1.205   2.800
 2649W        W 3646   3.207   2.276   4.889
 2650W        W 3647   4.385   6.437   5.180
 2651W        W 3648   7.356   5.329   4.073
 2652W        W 3649   4.171   6.358   1.576
 2653W        W 3650   5.206   5.593   5.697
 2654W        W 3651   4.412   1.606   7.945
 2655W        W 3652   0.825   0.879   2.137
 2656W        W 3653   3.461   1.513   3.831
 2657W        W 3654   7.386   1.230   2.345
 2658W        W 3655   4.391   5.286   2.990
 2659W        W 3656   0.189   2.819   5.303
 2660W        W 3657   2.350   6.068   4.704
 2661W        W 3658   4.935   0.979   7.392
 2662W        W 3659   1.055   2.595   4.830
 2663W        W 3660   1.461   1.022   3.999
 2664W        W 3661   3.793   7.193   5.104
 2665W        W 3662   2.762   6.512   1.723
 2666W        W 3663   1.038   2.119   2.606
 2667W        W 3664   4.810   3.757   3.169
 2668W        W 3665   1.083   5.656   5.157
 2669W        W 3666   4.510   6.921   4.274
 2670W        W 3667   2.196   0.491   2.292
 2671W        W 3668   4.292   3.186   5.500
 2672W        W 3669   6.777   7.642   3.739
 2673W        W 3670   0.762   6.766   6.653
 2674W        W 3671   7.490   3.208   7.014
 2675W        W 3672   5.611   6.297   3.644
 2676W        W 3673   1.337   5.535   6.050
 2677W        W 3674   6.710   6.103   0.598
 2678W        W 3675   4.766   5.849   5.820
 2679W        W 3676   1.903   0.933   3.265
 2680W        W 3677   6.676   2.153   7.067
 2681W        W 3678   0.618   7.271   2.359
 2682W        W 3679   6.139   4.093   3.673
 2683W        W 3680   7.397   1.834   5.380
 2684W        W 3681   5.077   6.977   7.837
 2685W        W 3682   0.097   1.645   2.686
 2686W        W 3683   1.755   2.388   2.059
 2687W        W 3684   7.627   5.361   6.743
 2688W        W 3685   7.252   4.129   4.787
 2689W        W 3686   6.126   7.167   3.521
 2690W        W 3687   3.113   4.473   1.188
 2691W        W 3688   0.923   3.950   6.474
 2692W        W 3689   6.915   2.815   1.792
 2693W        W 3690   2.529   0.223   1.072
 2694W        W 3691   1.892   1.084   4.711
 2695W        W 3692   2.588   6.705   3.512
 2696W        W 3693   4.226   4.744   6.801
 2697W        W 3694   6.264   4.465   6.034
 2698W        W 3695   6.873   1.063   0.166
 2699W        W 3696   1.471   7.468   0.395
 2700W        W 3697   4.417   7.592   1.710
 2701W        W 3698   0.275   5.333   4.146
 2702W        W 3699   1.994   4.544   1.703
 2703W        W 3700   2.027   1.735   7.303
 2704W        W 3701   6.999   5.985   7.067
 2705W        W 3702   1.845   6.662   7.885
 2706W        W 3703   6.505   4.558   6.465
 2707W        W 3704   1.938   6.318   0.345
 2708W        W 3705   3.143   5.886   6.904
 2709W        W 3706   5.227   6.506   2.741
 2710W        W 3707   7.761   5.808   5.718
 2711W        W 3708   2.470   7.346   3.011
 2712W        W 3709   2.774   0.661   1.141
 2713W        W 3710   5.895   2.844   5.518
 2714W        W 3711   4.647   1.710   2.690
 2715W        W 3712   1.334   1.755   3.481
 2716W        W 3713   6.828   7.374   1.374
 2717W        W 3714   7.032   0.145   7.198
 2718W        W 3715   5.015   4.413   1.647
 2719W        W 3716   2.377   7.658   3.376
 2720W        W 3717   4.227   7.814   2.319
 2721W        W 3718   2.778   1.518   2.149
 2722W        W 3719   3.114   0.284   1.877
 2723W        W 3720   6.688   4.732   0.235
 2724W        W 3721   3.198   1.667   5.606
 2725W        W 3722   1.455   7.857   0.155
 2726W        W 3723   1.257   7.387   3.048
 2727W        W 3724   4.750   6.637   7.774
 2728W        W 3725   0.682   6.778   0.893
 2729W        W 3726   4.266   1.732   7.505
 2730W        W 3727   3.093   5.717   6.377
 2731W        W 3728   1.941   2.051   5.285
 2732W        W 3729   3.022   2.365   1.678
 2733W        W 3730   1.236   2.223   0.976
 2734W        W 3731   0.268   6.081   1.350
 2735W        W 3732   7.427   2.251   1.110
 2736W        W 3733   4.780   2.316   4.770
 2737W        W 3734   3.384   0.432   5.697
 2738W        W 3735   7.054   2.484   6.316
 2739W        W 3736   5.241   7.376   6.419
 2740W        W 3737   7.014   4.872   5.627
 2741W        W 3738   5.210   6.529   3.447
 2742W        W 3739   2.503   3.328   4.440
 2743W        W 3740   3.177   7.439   0.985
 2744W        W 3741   4.221   4.088   4.778
 2745W        W 3742   5.496   6.863   5.721
 2746W        W 3743   2.670   1.308   1.681
 2747W        W 3744   1.432   6.112   2.098
 2748W        W 3745   4.557   6.856   5.957
 2749W        W 3746   7.828   4.101   1.053
 2750W        W 3747   3.857   5.043   7.024
 2751W        W 3748   2.349   3.674   6.796
 2752W        W 3749   7.588   6.424   3.991
 2753W        W 3750   1.563   2.120   1.699
 2754W        W 3751   1.312   3.725   6.570
 2755W        W 3752   3.829   3.872   5.880
 2756W        W 3753   3.929   1.036   1.031
 2757W        W 3754   0.733   4.972   4.744
 2758W        W 3755   6.109   1.360   2.777
 2759W        W 3756   5.725   5.373   5.069
 2760W        W 3757   4.303   6.481   6.838
 2761W        W 3758   4.388   3.358   3.107
 2762W        W 3759   2.069   5.553   3.951
 2763W        W 3760   1.171   3.364   5.533
 2764W        W 3761   2.386   1.780   2.018
 2765W        W 3762   3.438   0.478   6.425
 2766W        W 3763   3.462   4.041   7.919
 2767W        W 3764   5.130   1.191   1.112
 2768W        W 3765   6.228   2.505   5.386
 2769W        W 3766   3.890   6.814   6.146
 2770W        W 3767   5.211   7.900   6.282
 2771W        W 3768   2.451   1.045   0.253
 2772W        W 3769   5.116   0.269   2.912
 2773W        W 3770   0.544   5.485   5.421
 2774W        W 3771   4.003   5.369   0.467
 2775W        W 3772   3.452   6.677   6.000
 2776W        W 3773   5.389   0.482   1.891
 2777W        W 3774   5.394   3.290   6.177
 2778W        W 3775   7.941   6.055   5.316
 2779W        W 3776   2.878   4.314   0.739
 2780W        W 3777   1.075   6.621   1.856
 2781W        W 3778   0.939   4.389   0.443
 2782W        W 3779   5.113   3.858   7.496
 2783W        W 3780   3.123   7.930   0.926
 2784W        W 3781   5.332   0.055   0.376
 2785W        W 3782   4.658   5.974   0.586
 2786W        W 3783   7.689   6.814   0.833
 2787W        W 3784   6.705   0.463   6.850
 2788W        W 3785   7.997   0.619   5.394
 2789W        W 3786   0.723   0.353   7.704
 2790W        W 3787   6.503   0.341   6.225
 2791W        W 3788   3.811   7.291   6.022
 2792W        W 3789   5.022   0.460   7.970
 2793W        W 3790   4.594   5.518   1.316
 2794W        W 3791   3.435   4.136   1.398
 2795W        W 3792   5.190   1.025   7.842
 2796W        W 3793   1.686   3.701   0.635
 2797W        W 3794   3.707   1.731   7.446
 2798W        W 3795   5.799   1.516   6.729
 2799W        W 3796   2.385   2.815   7.083
 2800W        W 3797   1.796   7.496   0.951
 2801W        W 3798   5.885   2.144   1.156
 2802W        W 3799   7.584   6.276   1.574
 2803W        W 3800   1.839   6.214   2.803
 2804W        W 3801   5.687   3.382   2.159
 2805W        W 3802   4.016   6.331   0.237
 2806W        W 3803   5.477   1.529   4.653
 2807W        W 3804   4.801   5.121   1.656
 2808W        W 3805   3.910   0.086   4.446
 2809W        W 3806   6.373   4.905   7.174
 2810W        W 3807   1.493   0.848   2.986
 2811W        W 3808   2.774   5.314   6.002
 2812W        W 3809   7.739   7.456   0.833
 2813W        W 3810   3.916   3.835   3.337
 2814W        W 3811   7.473   1.552   3.920
 2815W        W 3812   6.432   6.538   1.062
 2816W        W 3813   0.941   3.356   0.176
 2817W        W 3814   4.850   1.182   3.539
 2818W        W 3815   3.463   1.956   2.433
 2819W        W 3816   0.250   1.530   1.152
 2820W        W 3817   4.635   5.937   0.069
 2821W        W 3818   4.637   7.129   1.814
 2822W        W 3819   4.674   3.536   2.702
 2823W        W 3820   0.630   6.261   1.041
 2824W        W 3821   5.158   3.024   3.637
 2825W        W 3822   7.152   6.783   3.943
 2826W        W 3823   3.817   5.864   3.572
 2827W        W 3824   2.049   2.758   4.720
 2828W        W 3825   2.636   7.239   3.517
 2829W        W 3826   5.943   0.509   3.955
 2830W        W 3827   7.444   6.524   6.521
 2831W        W 3828   2.121   2.068   2.654
 2832W        W 3829   2.067   6.578   5.473
 2833W        W 3830   7.135   2.193   3.270
 2834W        W 3831   2.512   7.486   5.134
 2835W        W 3832   0.387   2.810   1.919
 2836W        W 3833   5.206   1.422   7.569
 2837W        W 3834   6.324   0.187   4.276
 2838W        W 3835   1.866   7.262   3.833
 2839W        W 3836   4.173   2.329   6.114
 2840W        W 3837   7.849   5.118   0.833
 2841W        W 3838   2.445   7.618   5.628
 2842W        W 3839   4.318   3.264   4.015
 2843W        W 3840   6.852   3.196   4.480
 2844W        W 3841   6.506   5.397   6.891
 2845W        W 3842   7.929   3.969   3.127
 2846W        W 3843   6.516   0.948   7.197
 2847W        W 3844   7.194   2.185   2.763
 2848W        W 3845   0.609   2.654   3.781
 2849W        W 3846   5.449   3.143   4.019
 2850W        W 3847   3.265   4.502   4.341
 2851W        W 3848   5.207   5.080   7.280
 2852W        W 3849   3.690   2.010   3.009
 2853W        W 3850   5.853   0.378   1.704
 2854W        W 3851   2.337   2.456   4.426
 2855W        W 3852   4.266   5.567   3.487
 2856W        W 3853   7.176   4.189   5.776
 2857W        W 3854   6.912   6.537   1.504
 2858W        W 3855   3.824   4.257   4.527
 2859W        W 3856   4.083   6.909   0.739
 2860W        W 3857   6.551   6.337   3.385
 2861W        W 3858   4.449   3.025   0.132
 2862W        W 3859   6.007   2.740   4.951
 2863W        W 3860   2.389   6.198   5.755
 2864W        W 3861   7.035   2.623   3.040
 2865W        W 3862   7.060   0.992   6.108
 2866W        W 3863   2.876   2.267   4.482
 2867W        W 3864   7.997   7.211   6.058
 2868W        W 3865   4.297   1.238   7.592
 2869W        W 3866   5.536   1.543   0.854
 2870W        W 3867   7.716   4.618   6.419
 2871W        W 3868   0.216   2.031   1.173
 2872W        W 3869   1.534   6.012   6.275
 2873W        W 3870   0.617   3.578   1.046
 2874W        W 3871   5.772   2.082   7.512
 2875W        W 3872   7.672   3.288   5.198
 2876W        W 3873   3.922   3.847   5.160
 2877W        W 3874   6.164   0.806   7.529
 2878W        W 3875   4.176   1.545   6.597
 2879W        W 3876   3.814   1.110   4.758
 2880W        W 3877   7.371   1.735   2.626
 2881W        W 3878   7.463   6.667   4.408
 2882W        W 3879   2.099   4.948   1.359
 2883W        W 3880   1.979   2.925   5.196
 2884W        W 3881   5.512   3.226   5.652
 2885W        W 3882   3.567   2.859   4.372
 2886W        W 3883   4.035   6.915   6.663
 2887W        W 3884   4.079   2.097   6.622
 2888W        W 3885   3.885   4.587   3.527
 2889W        W 3886   1.239   6.828   0.948
 2890W        W 3887   5.523   0.151   3.237
 2891W        W 3888   3.007   3.151   4.463
 2892W        W 3889   2.301   0.606   3.159
 2893W        W 3890   2.064   7.514   6.003
 2894W        W 3891   6.560   1.717   6.454
 2895W        W 3892   5.200   2.707   0.208
 2896W        W 3893   0.317   2.426   7.364
 2897W        W 3894   0.113   2.912   1.570
 2898W        W 3895   6.683   3.322   2.064
 2899W        W 3896   4.180   1.537   4.027
 2900W        W 3897   1.134   0.975   3.303
 2901W        W 3898   2.335   1.946   4.406
 2902W        W 3899   3.106   0.945   3.996
 2903W        W 3900   6.253   7.750   4.413
 2904W        W 3901   6.458   6.458   7.333
 2905W        W 3902   5.521   0.287   5.946
 2906W        W 3903   4.661   3.696   6.931
 2907W        W 3904   4.648   5.509   2.021
 2908W        W 3905   3.393   6.711   5.111
 2909W        W 3906   1.514   2.009   6.748
 2910W        W 3907   5.649   6.180   1.642
 2911W        W 3908   5.439   6.812   5.209
 2912W        W 3909   0.477   4.680   7.818
 2913W        W 3910   0.556   5.789   2.392
 2914W        W 3911   6.272   7.621   7.019
 2915W        W 3912   4.463   2.393   4.383
 2916W        W 3913   2.908   0.750   2.849
 2917W        W 3914   6.942   4.132   2.518
 2918W        W 3915   6.941   1.260   5.189
 2919W        W 3916   0.193   4.663   2.090
 2920W        W 3917   4.621   4.786   3.974
 2921W        W 3918   7.592   0.064   3.783
 2922W        W 3919   1.740   0.626   7.870
 2923W        W 3920   6.875   7.217   4.084
 2924W        W 3921   2.720   4.298   5.305
 2925W        W 3922   3.233   1.042   4.825
 2926W        W 3923   0.961   5.005   7.124
 2927W        W 3924   6.790   0.918   3.051
 2928W        W 3925   7.971   4.394   3.352
 2929W        W 3926   7.875   5.553   3.502
 2930W        W 3927   7.847   5.814   1.770
 2931W        W 3928   1.339   0.179   6.485
 2932W        W 3929   7.211   5.433   1.623
 2933W        W 3930   3.147   5.745   5.887
 2934W        W 3931   1.844   2.214   4.828
 2935W        W 3932   3.966   4.713   7.561
 2936W        W 3933   3.231   0.502   3.725
 2937W        W 3934   5.974   6.562   0.828
 2938W        W 3935   7.958   3.791   7.836
 2939W        W 3936   1.492   4.113   0.441
 2940W        W 3937   4.536   6.672   1.547
 2941W        W 3938   5.346   3.719   1.866
 2942W        W 3939   7.187   1.433   0.056
 2943W        W 3940   6.548   6.166   1.709
 2944W        W 3941   0.735   3.389   2.605
 2945W        W 3942   6.677   0.579   0.207
 2946W        W 3943   7.471   6.588   2.948
 2947W        W 3944   1.848   4.244   7.305
 2948W        W 3945   0.741   7.139   2.825
 2949W        W 3946   7.347   5.199   5.365
 2950W        W 3947   6.027   5.222   5.402
 2951W        W 3948   0.103   1.926   5.540
 2952W        W 3949   3.458   1.292   6.421
 2953W        W 3950   4.924   7.144   5.798
 2954W        W 3951   1.753   3.227   0.841
 2955W        W 3952   0.011   0.347   6.489
 2956W        W 3953   4.403   5.594   6.848
 2957W        W 3954   0.038   1.318   7.673
 2958W        W 3955   4.345   6.035   1.101
 2959W        W 3956   5.342   1.582   2.248
 2960W        W 3957   7.672   7.282   0.382
 2961W        W 3958   1.700   0.416   3.184
 2962W        W 3959   2.213   7.194   0.983
 2963W        W 3960   6.146   2.516   3.667
 2964W        W 3961   5.005   1.973   5.732
 2965W        W 3962   3.708   5.585   0.030
 2966W        W 3963   5.793   5.722   6.116
 2967W        W 3964   7.382   5.652   7.936
 2968W        W 3965   1.294   7.133   2.618
 2969W        W 3966   7.555   5.064   6.251
 2970W        W 3967   5.662   0.735   5.122
 2971W        W 3968   3.298   2.570   5.788
 2972W        W 3969   4.943   2.315   2.041
 2973W        W 3970   7.351   1.161   3.073
 2974W        W 3971   4.334   2.648   4.820
 2975W        W 3972   6.690   1.098   1.598
 2976W        W 3973   3.062   3.244   3.540
 2977W        W 3974   0.322   1.238   0.690
 2978W        W 3975   1.297   7.142   5.489
 2979W        W 3976   7.196   4.701   4.959
 2980W        W 3977   4.532   1.628   5.858
 2981W        W 3978   7.395   1.030   4.715
 2982W        W 3979   7.669   7.724   6.275
 2983W        W 3980   6.560   6.379   6.363
 2984W        W 3981   3.797   1.379   0.326
 2985W        W 3982   6.368   0.883   3.857
 2986W        W 3983   3.737   2.173   6.263
 2987W        W 3984   7.161   5.829   5.822
 2988W        W 3985   3.023   0.525   4.222
 2989W        W 3986   7.395   2.613   2.506
 2990W        W 3987   3.339   1.113   0.121
 2991W        W 3988   3.579   7.078   5.626
 2992W        W 3989   1.069   6.801   5.081
 2993W        W 3990   3.610   6.196   1.519
 2994W        W 3991   1.576   7.372   4.357
 2995W        W 3992   0.269   3.535   4.534
 2996W        W 3993   4.395   6.037   6.675
 2997W        W 3994   7.734   4.078   4.226
 2998W        W 3995   2.917   0.717   1.827
 2999W        W 3996   7.936   0.045   3.374
 3000W        W 3997   6.117   7.001   4.924
 3001W        W 3998   5.654   5.918   6.928
 3002W        W 3999   5.061   1.881   6.200
 3003W        W 4000   5.218   7.600   6.861
 3004W        W 4001   2.456   2.126   3.058
 3005W        W 4002   4.299   4.938   0.303
 3006W        W 4003   4.535   3.129   1.100
 3007W        W 4004   6.696   7.099   4.926
 3008W        W 4005   4.623   3.627   1.139
 3009W        W 4006   4.431   3.785   3.552
 3010W        W 4007   5.945   4.666   5.380
 3011W        W 4008   1.918   2.978   6.992
 3012W        W 4009   6.150   2.592   5.916
 3013W        W 4010   5.071   7.037   0.369
 3014W        W 4011   1.485   7.108   5.036
 3015W        W 4012   7.614   2.536   4.288
 3016W        W 4013   2.879   2.641   1.273
 3017W        W 4014   5.584   6.238   2.162
 3018W        W 4015   3.604   3.791   1.787
 3019W        W 4016   4.891   3.539   4.947
 3020W        W 4017   4.911   2.512   5.450
 3021W        W 4018   5.991   7.197   0.743
 3022W        W 4019   2.566   3.027   0.228
 3023W        W 4020   1.639   2.667   7.350
 3024W        W 4021   1.709   2.541   5.395
 3025W        W 4022   6.757   7.780   4.432
 3026W        W 4023   1.482   4.089   7.696
 3027W        W 4024   7.366   2.889   4.010
 3028W        W 4025   0.157   5.371   4.594
 3029W        W 4026   7.425   1.828   6.828
 3030W        W 4027   5.314   5.322   3.530
 3031W        W 4028   3.620   1.601   1.189
 3032W        W 4029   3.005   1.747   0.189
 3033W        W 4030   6.049   3.731   6.692
 3034W        W 4031   7.040   2.248   7.471
 3035W        W 4032   2.837   2.853   1.729
 3036W        W 4033   6.252   2.164   6.140
 3037W        W 4034   5.157   2.816   2.233
 3038W        W 4035   1.168   2.728   7.465
 3039W        W 4036   2.291   0.105   0.592
 3040W        W 4037   5.155   7.009   2.498
 3041W        W 4038   5.591   5.385   7.412
 3042W        W 4039   0.816   2.248   7.328
 3043W        W 4040   5.689   2.749   3.395
 3044W        W 4041   1.952   6.073   6.014
 3045W        W 4042   3.271   4.436   5.319
 3046W        W 4043   5.992   7.705   1.618
 3047W        W 4044   4.662   3.089   7.772
 3048W        W 4045   6.305   3.372   2.875
 3049W        W 4046   4.055   2.844   4.184
 3050W        W 4047   3.107   4.155   6.390
 3051W        W 4048   7.077   2.092   3.833
 3052W        W 4049   4.392   3.644   4.943
 3053W        W 4050   7.484   5.038   0.358
 3054W        W 4051   2.018   1.156   6.546
 3055W        W 4052   6.581   4.574   5.619
 3056W        W 4053   2.468   4.585   7.133
 3057W        W 4054   6.267   2.332   7.882
 3058W        W 4055   5.195   6.807   6.129
 3059W        W 4056   1.967   3.374   7.300
 3060W        W 4057   2.384   6.654   7.205
 3061W        W 4058   3.565   6.423   2.238
 3062W        W 4059   4.917   6.443   7.328
 3063W        W 4060   0.673   7.302   0.692
 3064W        W 4061   2.490   3.171   5.611
 3065W        W 4062   7.359   0.249   4.208
 3066W        W 4063   6.546   1.892   0.675
 3067W        W 4064   1.656   6.815   3.614
 3068W        W 4065   2.814   5.380   0.765
 3069W        W 4066   1.911   3.441   6.744
 3070W        W 4067   3.941   3.366   5.051
 3071W        W 4068   6.840   0.130   1.750
 3072W        W 4069   7.356   0.399   6.885
 3073W        W 4070   3.847   1.849   3.887
 3074W        W 4071   4.835   6.747   6.495
 3075W        W 4072   2.627   0.199   2.204
 3076W        W 4073   7.965   4.383   6.936
 3077W        W 4074   4.598   7.895   6.204
 3078W        W 4075   5.238   3.845   6.036
 3079W        W 4076   6.237   5.294   4.611
 3080W        W 4077   6.464   1.507   1.426
 3081W        W 4078   3.222   3.049   1.437
 3082W        W 4079   1.865   7.054   5.545
 3083W        W 4080   1.870   4.466   4.112
 3084W        W 4081   2.052   2.898   0.179
 3085W        W 4082   0.538   6.621   2.092
 3086W        W 4083   2.206   2.504   5.098
 3087W        W 4084   4.762   3.283   6.702
 3088W        W 4085   0.011   6.640   2.133
 3089W        W 4086   0.424   4.086   2.870
 3090W        W 4087   4.348   6.071   2.605
 3091W        W 4088   7.746   4.835   3.349
 3092W        W 4089   2.374   0.800   3.608
 3093W        W 4090   0.866   5.105   7.626
 3094W        W 4091   7.648   3.556   7.534
 3095W        W 4092   6.581   2.494   1.553
 3096W        W 4093   0.096   2.253   4.014
 3097W        W 4094   4.731   5.343   5.846
 3098W        W 4095   0.201   6.891   4.609
 3099W        W 4096   7.460   3.734   4.470
 3100W        W 4097   1.655   6.398   5.748
 3101W        W 4098   4.495   2.886   6.830
 3102W        W 4099   6.106   5.019   0.801
 3103W        W 4100   0.754   7.033   5.499
 3104W        W 4101   7.116   3.414   2.333
 3105W        W 4102   1.705   6.551   6.245
 3106W        W 4103   4.222   5.349   7.994
 3107W        W 4104   3.798   1.987   2.012
 3108W        W 4105   2.484   0.855   1.479
 3109W        W 4106   1.903   4.814   6.494
 3110W        W 4107   1.995   1.598   5.111
 3111W        W 4108   5.116   1.352   2.599
 3112W        W 4109   7.211   6.690   6.082
 3113W        W 4110   7.024   6.258   6.679
 3114W        W 4111   5.457   1.338   7.069
 3115W        W 4112   6.236   3.846   4.679
 3116W        W 4113   4.997   7.370   2.187
 3117W        W 4114   5.305   1.714   6.755
 3118W        W 4115   5.463   5.398   0.493
 3119W        W 4116   6.219   6.928   7.135
 3120W        W 4117   7.820   0.238   1.153
 3121W        W 4118   0.391   1.970   7.560
 3122W        W 4119   0.704   3.334   5.832
 3123W        W 4120   0.265   3.825   1.387
 3124W        W 4121   6.967   3.881   2.949
 3125W        W 4122   7.328   3.863   2.312
 3126W        W 4123   3.482   7.576   5.630
 3127W        W 4124   2.476   6.900   6.206
 3128W        W 4125   6.257   4.506   7.463
 3129W        W 4126   3.410   7.503   3.382
 3130W        W 4127   2.245   3.002   6.036
 3131W        W 4128   1.736   3.761   4.586
 3132W        W 4129   1.303   6.840   4.637
 3133W        W 4130   7.561   1.375   5.985
 3134W        W 4131   5.838   1.012   6.843
 3135W        W 4132   4.542   6.351   3.727
 3136W        W 4133   0.253   3.344   5.539
 3137W        W 4134   5.395   5.350   4.708
 3138W        W 4135   1.146   1.681   6.469
 3139W        W 4136   1.109   6.546   2.791
 3140W        W 4137   2.838   6.456   7.571
 3141W        W 4138   7.641   0.391   2.676
 3142W        W 4139   2.032   4.469   1.172
 3143W        W 4140   5.249   6.548   4.832
 3144W        W 4141   0.823   2.017   2.145
 3145W        W 4142   6.092   0.274   1.284
 3146W        W 4143   2.240   0.195   2.898
 3147W        W 4144   6.921   1.503   6.044
 3148W        W 4145   0.868   6.791   2.487
 3149W        W 4146   3.458   7.616   0.611
 3150W        W 4147   3.035   5.330   1.266
 3151W        W 4148   5.119   0.728   4.881
 3152W        W 4149   3.309   3.119   2.635
 3153W        W 4150   2.782   0.521   3.309
 3154W        W 4151   7.962   3.768   6.359
 3155W        W 4152   5.491   2.630   6.781
 3156W        W 4153   1.843   4.437   7.851
 3157W        W 4154   6.795   1.871   3.414
 3158W        W 4155   5.071   3.741   6.542
 3159W        W 4156   2.142   2.488   6.770
 3160W        W 4157   1.977   7.542   3.071
 3161W        W 4158   7.326   6.667   3.432
 3162W        W 4159   4.433   2.152   2.679
 3163W        W 4160   7.477   0.812   1.332
 3164W        W 4161   1.671   5.985   4.610
 3165W        W 4162   3.612   2.999   2.269
 3166W        W 4163   1.716   3.265   0.226
 3167W        W 4164   6.862   1.258   6.570
 3168W        W 4165   3.182   2.071   6.049
 3169W        W 4166   1.807   0.803   4.299
 3170W        W 4167   5.569   3.620   3.944
 3171W        W 4168   4.315   4.419   0.137
 3172W        W 4169   7.057   2.002   0.095
 3173W        W 4170   4.712   3.321   3.477
 3174W        W 4171   6.481   4.268   0.208
 3175W        W 4172   6.110   6.320   6.552
 3176W        W 4173   3.480   3.995   5.478
 3177W        W 4174   0.999   3.896   0.369
 3178W        W 4175   4.509   2.980   2.716
 3179W        W 4176   7.290   4.529   1.008
 3180W        W 4177   0.824   3.061   4.860
 3181W        W 4178   5.076   2.845   2.800
 3182W        W 4179   4.312   5.065   4.226
 3183W        W 4180   2.550   3.855   5.265
 3184W        W 4181   2.838   2.910   7.734
 3185W        W 4182   4.730   5.030   2.123
 3186W        W 4183   5.302   4.533   3.096
 3187W        W 4184   5.460   7.517   2.475
 3188W        W 4185   5.535   5.510   2.482
 3189W        W 4186   4.717   5.174   3.466
 3190W        W 4187   7.332   1.354   6.404
 3191W        W 4188   3.270   3.087   4.014
 3192W        W 4189   5.425   1.206   4.254
 3193W        W 4190   7.820   1.633   1.681
 3194W        W 4191   3.135   4.905   0.947
 3195W        W 4192   1.015   7.828   1.460
 3196W        W 4193   5.179   2.493   0.708
 3197W        W 4194   6.118   1.947   1.675
 3198W        W 4195   5.865   0.965   1.984
   8.00000   8.00000   8.00000
