Martini system from ../2_Creating_coordinates/TYR-CYS-TYR_aa.pdb
 4222
    1TYR     BB    1   4.619   0.466   2.971
    1TYR    SC1    2   4.539   0.353   2.692
    1TYR    SC2    3   4.671   0.506   2.561
    1TYR    SC3    4   4.726   0.329   2.404
    2CYS     BB    5   4.967   0.472   2.827
    2CYS    SC1    6   5.088   0.611   3.063
    3TYR     BB    7   5.145   0.677   2.653
    3TYR    SC1    8   5.139   0.550   2.391
    3TYR    SC2    9   5.268   0.687   2.241
    3TYR    SC3   10   5.362   0.490   2.135
    1TYR     BB   11   6.113   0.812   5.974
    1TYR    SC1   12   5.990   0.530   5.927
    1TYR    SC2   13   6.195   0.406   5.945
    1TYR    SC3   14   6.080   0.226   6.061
    2CYS     BB   15   6.304   0.640   6.250
    2CYS    SC1   16   6.473   0.880   6.314
    3TYR     BB   17   6.580   0.476   6.277
    3TYR    SC1   18   6.481   0.203   6.301
    3TYR    SC2   19   6.673   0.058   6.323
    3TYR    SC3   20   6.557  -0.075   6.489
    1TYR     BB   21   2.547   4.366   5.761
    1TYR    SC1   22   2.653   4.160   5.554
    1TYR    SC2   23   2.540   4.252   5.362
    1TYR    SC3   24   2.733   4.205   5.222
    2CYS     BB   25   2.626   4.620   5.494
    2CYS    SC1   26   2.505   4.850   5.643
    3TYR     BB   27   2.476   4.746   5.238
    3TYR    SC1   28   2.611   4.609   5.019
    3TYR    SC2   29   2.515   4.688   4.814
    3TYR    SC3   30   2.734   4.693   4.709
    1TYR     BB   31   7.562   6.404   4.769
    1TYR    SC1   32   7.465   6.601   4.549
    1TYR    SC2   33   7.682   6.686   4.489
    1TYR    SC3   34   7.618   6.694   4.255
    2CYS     BB   35   7.830   6.316   4.519
    2CYS    SC1   36   7.981   6.138   4.707
    3TYR     BB   37   8.122   6.428   4.439
    3TYR    SC1   38   8.064   6.566   4.190
    3TYR    SC2   39   8.270   6.660   4.109
    3TYR    SC3   40   8.212   6.600   3.881
    1TYR     BB   41   2.275   4.989   4.009
    1TYR    SC1   42   2.208   5.276   3.907
    1TYR    SC2   43   2.436   5.353   3.888
    1TYR    SC3   44   2.381   5.475   3.685
    2CYS     BB   45   2.540   4.997   3.741
    2CYS    SC1   46   2.664   4.736   3.823
    3TYR     BB   47   2.845   5.098   3.715
    3TYR    SC1   48   2.811   5.342   3.559
    3TYR    SC2   49   3.030   5.438   3.526
    3TYR    SC3   50   2.973   5.496   3.297
    1TYR     BB   51   5.953   2.393   5.601
    1TYR    SC1   52   5.822   2.435   5.322
    1TYR    SC2   53   5.785   2.202   5.273
    1TYR    SC3   54   5.572   2.254   5.168
    2CYS     BB   55   5.675   2.144   5.653
    2CYS    SC1   56   5.780   2.045   5.916
    3TYR     BB   57   5.625   1.832   5.590
    3TYR    SC1   58   5.444   1.848   5.362
    3TYR    SC2   59   5.391   1.622   5.296
    3TYR    SC3   60   5.160   1.685   5.256
    1TYR     BB   61   4.800   5.285   6.079
    1TYR    SC1   62   4.862   4.984   6.034
    1TYR    SC2   63   4.764   4.967   5.814
    1TYR    SC3   64   4.943   4.818   5.743
    2CYS     BB   65   4.919   5.325   5.723
    2CYS    SC1   66   4.845   5.615   5.705
    3TYR     BB   67   4.789   5.305   5.429
    3TYR    SC1   68   4.893   5.048   5.338
    3TYR    SC2   69   4.808   5.010   5.116
    3TYR    SC3   70   5.022   4.919   5.046
    1TYR     BB   71  -0.023   3.084   3.553
    1TYR    SC1   72   0.175   3.310   3.472
    1TYR    SC2   73   0.369   3.218   3.581
    1TYR    SC3   74   0.510   3.291   3.397
    2CYS     BB   75   0.260   2.854   3.458
    2CYS    SC1   76   0.121   2.605   3.553
    3TYR     BB   77   0.519   2.727   3.602
    3TYR    SC1   78   0.733   2.888   3.486
    3TYR    SC2   79   0.940   2.811   3.580
    3TYR    SC3   80   1.050   2.832   3.364
    1TYR     BB   81   0.699   3.644   4.207
    1TYR    SC1   82   0.846   3.904   4.294
    1TYR    SC2   83   1.070   3.821   4.264
    1TYR    SC3   84   1.142   4.037   4.179
    2CYS     BB   85   0.953   3.638   3.929
    2CYS    SC1   86   0.868   3.370   3.824
    3TYR     BB   87   1.252   3.526   3.887
    3TYR    SC1   88   1.408   3.772   3.899
    3TYR    SC2   89   1.640   3.713   3.870
    3TYR    SC3   90   1.675   3.909   3.731
    1TYR     BB   91   2.606   1.846   1.225
    1TYR    SC1   92   2.782   1.893   1.477
    1TYR    SC2   93   2.949   2.030   1.370
    1TYR    SC3   94   2.965   2.170   1.568
    2CYS     BB   95   2.660   2.214   1.165
    2CYS    SC1   96   2.526   2.214   0.897
    3TYR     BB   97   2.881   2.398   1.020
    3TYR    SC1   98   3.022   2.509   1.250
    3TYR    SC2   99   3.196   2.653   1.166
    3TYR    SC3  100   3.151   2.815   1.341
    1TYR     BB  101   1.954   1.752   3.583
    1TYR    SC1  102   1.758   1.960   3.459
    1TYR    SC2  103   1.911   2.049   3.296
    1TYR    SC3  104   1.731   2.069   3.134
    2CYS     BB  105   2.043   1.679   3.224
    2CYS    SC1  106   2.267   1.492   3.293
    3TYR     BB  107   2.249   1.796   3.005
    3TYR    SC1  108   2.068   1.947   2.833
    3TYR    SC2  109   2.201   2.046   2.658
    3TYR    SC3  110   2.028   1.998   2.495
    1TYR     BB  111   7.556   3.511   6.967
    1TYR    SC1  112   7.626   3.490   7.270
    1TYR    SC2  113   7.399   3.479   7.351
    1TYR    SC3  114   7.465   3.318   7.520
    2CYS     BB  115   7.307   3.239   7.045
    2CYS    SC1  116   7.182   3.243   6.772
    3TYR     BB  117   7.003   3.221   7.150
    3TYR    SC1  118   7.044   3.135   7.426
    3TYR    SC2  119   6.827   3.115   7.528
    3TYR    SC3  120   6.896   2.913   7.644
    1TYR     BB  121   1.766   7.730   3.955
    1TYR    SC1  122   1.767   7.769   3.646
    1TYR    SC2  123   2.000   7.824   3.625
    1TYR    SC3  124   2.014   7.698   3.417
    2CYS     BB  125   2.086   7.541   3.894
    2CYS    SC1  126   2.148   7.505   4.186
    3TYR     BB  127   2.399   7.612   3.868
    3TYR    SC1  128   2.439   7.588   3.581
    3TYR    SC2  129   2.671   7.638   3.535
    3TYR    SC3  130   2.680   7.460   3.370
    1TYR     BB  131   5.394   6.895   5.238
    1TYR    SC1  132   5.668   6.916   5.091
    1TYR    SC2  133   5.629   6.738   4.933
    1TYR    SC3  134   5.743   6.864   4.759
    2CYS     BB  135   5.252   6.865   4.889
    2CYS    SC1  136   4.973   6.808   4.982
    3TYR     BB  137   5.198   6.628   4.678
    3TYR    SC1  138   5.414   6.671   4.487
    3TYR    SC2  139   5.394   6.503   4.316
    3TYR    SC3  140   5.451   6.665   4.145
    1TYR     BB  141   1.000   1.664   7.165
    1TYR    SC1  142   1.123   1.933   7.068
    1TYR    SC2  143   1.247   1.842   6.882
    1TYR    SC3  144   1.195   2.038   6.748
    2CYS     BB  145   0.938   1.604   6.798
    2CYS    SC1  146   0.840   1.322   6.836
    3TYR     BB  147   1.101   1.481   6.549
    3TYR    SC1  148   1.173   1.722   6.402
    3TYR    SC2  149   1.298   1.655   6.208
    3TYR    SC3  150   1.185   1.822   6.073
    1TYR     BB  151   5.119   7.584   3.753
    1TYR    SC1  152   4.936   7.791   3.609
    1TYR    SC2  153   4.949   7.693   3.389
    1TYR    SC3  154   4.715   7.746   3.349
    2CYS     BB  155   4.922   7.330   3.555
    2CYS    SC1  156   5.090   7.097   3.640
    3TYR     BB  157   4.938   7.196   3.262
    3TYR    SC1  158   4.723   7.335   3.124
    3TYR    SC2  159   4.716   7.251   2.898
    3TYR    SC3  160   4.473   7.252   2.902
    1TYR     BB  161   1.747  -0.439   2.840
    1TYR    SC1  162   1.508  -0.275   2.952
    1TYR    SC2  163   1.591  -0.057   2.891
    1TYR    SC3  164   1.367   0.016   2.834
    2CYS     BB  165   1.717  -0.209   2.543
    2CYS    SC1  166   1.963  -0.313   2.407
    3TYR     BB  167   1.829   0.081   2.458
    3TYR    SC1  168   1.592   0.247   2.494
    3TYR    SC2  169   1.652   0.473   2.436
    3TYR    SC3  170   1.438   0.505   2.326
    1TYR     BB  171   5.834   0.680   4.354
    1TYR    SC1  172   5.613   0.894   4.403
    1TYR    SC2  173   5.649   0.920   4.639
    1TYR    SC3  174   5.608   1.159   4.622
    2CYS     BB  175   6.044   0.903   4.575
    2CYS    SC1  176   6.276   0.713   4.587
    3TYR     BB  177   6.096   0.938   4.892
    3TYR    SC1  178   5.944   1.180   4.948
    3TYR    SC2  179   5.968   1.228   5.183
    3TYR    SC3  180   5.987   1.465   5.136
    1TYR     BB  181   1.161   0.217   0.225
    1TYR    SC1  182   1.243   0.503   0.135
    1TYR    SC2  183   1.344   0.570   0.343
    1TYR    SC3  184   1.518   0.690   0.223
    2CYS     BB  185   1.506   0.206   0.376
    2CYS    SC1  186   1.465  -0.058   0.512
    3TYR     BB  187   1.643   0.294   0.654
    3TYR    SC1  188   1.786   0.535   0.575
    3TYR    SC2  189   1.898   0.620   0.770
    3TYR    SC3  190   2.093   0.676   0.636
    1TYR     BB  191   7.359   0.391   0.166
    1TYR    SC1  192   7.200   0.169   0.316
    1TYR    SC2  193   7.307   0.197   0.530
    1TYR    SC3  194   7.096   0.157   0.644
    2CYS     BB  195   7.297   0.593   0.479
    2CYS    SC1  196   7.469   0.824   0.392
    3TYR     BB  197   7.440   0.633   0.764
    3TYR    SC1  198   7.263   0.481   0.939
    3TYR    SC2  199   7.351   0.496   1.162
    3TYR    SC3  200   7.127   0.519   1.253
    1TYR     BB  201   1.906   5.601   4.577
    1TYR    SC1  202   1.920   5.421   4.830
    1TYR    SC2  203   1.948   5.598   4.990
    1TYR    SC3  204   1.806   5.481   5.149
    2CYS     BB  205   1.680   5.816   4.789
    2CYS    SC1  206   1.661   6.037   4.587
    3TYR     BB  207   1.716   6.055   5.002
    3TYR    SC1  208   1.666   5.916   5.253
    3TYR    SC2  209   1.688   6.077   5.431
    3TYR    SC3  210   1.497   5.980   5.546
    1TYR     BB  211   1.840   0.672   5.255
    1TYR    SC1  212   1.694   0.584   5.516
    1TYR    SC2  213   1.558   0.412   5.416
    1TYR    SC3  214   1.587   0.271   5.612
    2CYS     BB  215   1.870   0.301   5.192
    2CYS    SC1  216   1.985   0.334   4.917
    3TYR     BB  217   1.690   0.071   5.057
    3TYR    SC1  218   1.593  -0.071   5.292
    3TYR    SC2  219   1.453  -0.251   5.215
    3TYR    SC3  220   1.544  -0.399   5.385
    1TYR     BB  221   7.495   7.064   3.517
    1TYR    SC1  222   7.623   6.796   3.609
    1TYR    SC2  223   7.794   6.892   3.748
    1TYR    SC3  224   7.766   6.714   3.911
    2CYS     BB  225   7.529   7.161   3.879
    2CYS    SC1  226   7.441   7.445   3.837
    3TYR     BB  227   7.756   7.292   4.067
    3TYR    SC1  228   7.848   7.059   4.216
    3TYR    SC2  229   8.021   7.133   4.366
    3TYR    SC3  230   7.936   6.988   4.541
    1TYR     BB  231   0.414   4.033   0.674
    1TYR    SC1  232   0.528   4.216   0.898
    1TYR    SC2  233   0.479   4.426   0.791
    1TYR    SC3  234   0.420   4.525   1.005
    2CYS     BB  235   0.127   4.278   0.673
    2CYS    SC1  236  -0.008   4.155   0.435
    3TYR     BB  237   0.058   4.558   0.529
    3TYR    SC1  238   0.097   4.746   0.748
    3TYR    SC2  239   0.050   4.967   0.663
    3TYR    SC3  240  -0.063   5.025   0.870
    1TYR     BB  241   6.611   1.637   2.058
    1TYR    SC1  242   6.531   1.521   1.781
    1TYR    SC2  243   6.340   1.395   1.856
    1TYR    SC3  244   6.218   1.452   1.654
    2CYS     BB  245   6.241   1.699   2.097
    2CYS    SC1  246   6.262   1.790   2.382
    3TYR     BB  247   5.985   1.534   2.200
    3TYR    SC1  248   5.854   1.469   1.948
    3TYR    SC2  249   5.655   1.343   2.000
    3TYR    SC3  250   5.531   1.460   1.828
    1TYR     BB  251   2.542   6.653   4.341
    1TYR    SC1  252   2.501   6.946   4.245
    1TYR    SC2  253   2.704   7.036   4.339
    1TYR    SC3  254   2.734   7.178   4.144
    2CYS     BB  255   2.897   6.705   4.225
    2CYS    SC1  256   2.995   6.442   4.331
    3TYR     BB  257   3.170   6.822   4.350
    3TYR    SC1  258   3.187   7.081   4.217
    3TYR    SC2  259   3.387   7.190   4.296
    3TYR    SC3  260   3.433   7.273   4.073
    1TYR     BB  261   3.742   0.315   4.978
    1TYR    SC1  262   3.885   0.537   5.142
    1TYR    SC2  263   3.772   0.724   5.041
    1TYR    SC3  264   3.763   0.838   5.256
    2CYS     BB  265   3.431   0.516   5.047
    2CYS    SC1  266   3.255   0.348   4.872
    3TYR     BB  267   3.277   0.764   4.912
    3TYR    SC1  268   3.346   0.980   5.095
    3TYR    SC2  269   3.241   1.181   5.014
    3TYR    SC3  270   3.185   1.247   5.241
    1TYR     BB  271   5.894   7.445   2.323
    1TYR    SC1  272   5.808   7.700   2.167
    1TYR    SC2  273   5.721   7.821   2.356
    1TYR    SC3  274   5.809   8.029   2.267
    2CYS     BB  275   6.028   7.691   2.575
    2CYS    SC1  276   6.102   7.481   2.777
    3TYR     BB  277   5.914   7.852   2.830
    3TYR    SC1  278   5.887   8.120   2.720
    3TYR    SC2  279   5.801   8.262   2.895
    3TYR    SC3  280   5.948   8.442   2.826
    1TYR     BB  281   5.268   4.151   5.531
    1TYR    SC1  282   5.225   4.161   5.223
    1TYR    SC2  283   5.337   4.371   5.185
    1TYR    SC3  284   5.431   4.287   4.977
    2CYS     BB  285   5.618   4.263   5.448
    2CYS    SC1  286   5.700   4.301   5.735
    3TYR     BB  287   5.770   4.543   5.400
    3TYR    SC1  288   5.801   4.542   5.110
    3TYR    SC2  289   5.914   4.745   5.048
    3TYR    SC3  290   6.046   4.626   4.883
    1TYR     BB  291   5.770   1.026   3.441
    1TYR    SC1  292   5.800   0.941   3.143
    1TYR    SC2  293   5.571   0.979   3.079
    1TYR    SC3  294   5.642   1.064   2.863
    2CYS     BB  295   5.569   1.313   3.299
    2CYS    SC1  296   5.484   1.417   3.567
    3TYR     BB  297   5.263   1.366   3.215
    3TYR    SC1  298   5.281   1.356   2.925
    3TYR    SC2  299   5.060   1.393   2.837
    3TYR    SC3  300   5.150   1.531   2.659
    1TYR     BB  301   4.594   6.403   2.358
    1TYR    SC1  302   4.548   6.695   2.455
    1TYR    SC2  303   4.347   6.652   2.582
    1TYR    SC3  304   4.417   6.809   2.753
    2CYS     BB  305   4.510   6.312   2.714
    2CYS    SC1  306   4.511   6.016   2.663
    3TYR     BB  307   4.243   6.251   2.884
    3TYR    SC1  308   4.216   6.497   3.038
    3TYR    SC2  309   4.020   6.475   3.176
    3TYR    SC3  310   4.134   6.582   3.361
    1TYR     BB  311   3.536   2.553   4.790
    1TYR    SC1  312   3.348   2.363   4.631
    1TYR    SC2  313   3.299   2.212   4.812
    1TYR    SC3  314   3.069   2.191   4.736
    2CYS     BB  315   3.273   2.526   5.059
    2CYS    SC1  316   3.431   2.679   5.262
    3TYR     BB  317   3.207   2.327   5.304
    3TYR    SC1  318   2.981   2.178   5.196
    3TYR    SC2  319   2.913   2.019   5.364
    3TYR    SC3  320   2.679   2.061   5.313
    1TYR     BB  321   7.809  -0.350   5.719
    1TYR    SC1  322   7.730  -0.256   6.005
    1TYR    SC2  323   7.884  -0.071   6.018
    1TYR    SC3  324   7.719   0.063   6.135
    2CYS     BB  325   7.803   0.017   5.636
    2CYS    SC1  326   7.910  -0.019   5.358
    3TYR     BB  327   8.009   0.265   5.651
    3TYR    SC1  328   7.908   0.409   5.883
    3TYR    SC2  329   8.049   0.602   5.915
    3TYR    SC3  330   7.855   0.738   5.970
    1TYR     BB  331   7.914   5.144   4.746
    1TYR    SC1  332   7.754   5.204   5.006
    1TYR    SC2  333   7.643   5.402   4.926
    1TYR    SC3  334   7.440   5.340   5.043
    2CYS     BB  335   7.589   5.223   4.572
    2CYS    SC1  336   7.705   5.208   4.296
    3TYR     BB  337   7.440   5.487   4.462
    3TYR    SC1  338   7.234   5.525   4.665
    3TYR    SC2  339   7.108   5.721   4.604
    3TYR    SC3  340   6.901   5.612   4.671
    1TYR     BB  341   2.211   5.497   8.243
    1TYR    SC1  342   2.183   5.242   8.067
    1TYR    SC2  343   2.017   5.329   7.916
    1TYR    SC3  344   2.122   5.215   7.729
    2CYS     BB  345   2.211   5.679   7.913
    2CYS    SC1  346   2.205   5.952   8.037
    3TYR     BB  347   1.990   5.799   7.711
    3TYR    SC1  348   1.995   5.602   7.497
    3TYR    SC2  349   1.835   5.670   7.331
    3TYR    SC3  350   1.986   5.604   7.153
    1TYR     BB  351   4.405   4.328   1.916
    1TYR    SC1  352   4.402   4.620   1.808
    1TYR    SC2  353   4.640   4.640   1.774
    1TYR    SC3  354   4.604   4.767   1.571
    2CYS     BB  355   4.647   4.265   1.635
    2CYS    SC1  356   4.709   3.984   1.719
    3TYR     BB  357   4.965   4.289   1.589
    3TYR    SC1  358   4.982   4.530   1.426
    3TYR    SC2  359   5.215   4.570   1.379
    3TYR    SC3  360   5.160   4.636   1.151
    1TYR     BB  361   6.759   4.496   1.258
    1TYR    SC1  362   6.450   4.508   1.284
    1TYR    SC2  363   6.430   4.352   1.467
    1TYR    SC3  364   6.252   4.484   1.565
    2CYS     BB  365   6.754   4.516   1.634
    2CYS    SC1  366   7.050   4.475   1.665
    3TYR     BB  367   6.731   4.308   1.880
    3TYR    SC1  368   6.456   4.352   1.966
    3TYR    SC2  369   6.414   4.205   2.152
    3TYR    SC3  370   6.288   4.379   2.265
    1TYR     BB  371   7.502   1.493   5.555
    1TYR    SC1  372   7.545   1.296   5.318
    1TYR    SC2  373   7.432   1.108   5.417
    1TYR    SC3  374   7.340   1.046   5.201
    2CYS     BB  375   7.151   1.356   5.555
    2CYS    SC1  376   7.068   1.503   5.804
    3TYR     BB  377   6.997   1.106   5.689
    3TYR    SC1  378   6.967   0.929   5.459
    3TYR    SC2  379   6.852   0.731   5.535
    3TYR    SC3  380   6.722   0.724   5.331
    1TYR     BB  381   6.186   4.226   3.541
    1TYR    SC1  382   5.886   4.299   3.498
    1TYR    SC2  383   5.800   4.074   3.511
    1TYR    SC3  384   5.604   4.153   3.631
    2CYS     BB  385   6.053   4.000   3.811
    2CYS    SC1  386   6.318   3.873   3.870
    3TYR     BB  387   5.939   3.699   3.831
    3TYR    SC1  388   5.653   3.748   3.860
    3TYR    SC2  389   5.545   3.533   3.876
    3TYR    SC3  390   5.394   3.620   4.046
    1TYR     BB  391   6.732   7.551   8.182
    1TYR    SC1  392   6.710   7.588   7.874
    1TYR    SC2  393   6.614   7.372   7.826
    1TYR    SC3  394   6.472   7.471   7.655
    2CYS     BB  395   6.384   7.408   8.151
    2CYS    SC1  396   6.368   7.322   8.438
    3TYR     BB  397   6.254   7.119   8.090
    3TYR    SC1  398   6.164   7.155   7.815
    3TYR    SC2  399   6.061   6.949   7.745
    3TYR    SC3  400   5.887   7.072   7.629
    1TYR     BB  401   1.403   6.168   2.909
    1TYR    SC1  402   1.601   5.929   2.931
    1TYR    SC2  403   1.560   5.837   2.712
    1TYR    SC3  404   1.795   5.782   2.687
    2CYS     BB  405   1.549   6.208   2.564
    2CYS    SC1  406   1.357   6.423   2.482
    3TYR     BB  407   1.493   6.089   2.270
    3TYR    SC1  408   1.715   5.902   2.241
    3TYR    SC2  409   1.694   5.797   2.025
    3TYR    SC3  410   1.935   5.809   1.993
    1TYR     BB  411   3.984   5.320   4.623
    1TYR    SC1  412   4.031   5.447   4.903
    1TYR    SC2  413   4.230   5.570   4.845
    1TYR    SC3  414   4.159   5.756   4.985
    2CYS     BB  415   4.063   5.666   4.495
    2CYS    SC1  416   4.061   5.585   4.206
    3TYR     BB  417   4.328   5.831   4.415
    3TYR    SC1  418   4.354   6.010   4.643
    3TYR    SC2  419   4.549   6.147   4.606
    3TYR    SC3  420   4.434   6.341   4.695
    1TYR     BB  421   6.157   3.939   6.828
    1TYR    SC1  422   6.375   3.718   6.843
    1TYR    SC2  423   6.226   3.531   6.866
    1TYR    SC3  424   6.369   3.394   6.724
    2CYS     BB  425   5.983   3.698   6.596
    2CYS    SC1  426   5.733   3.862   6.574
    3TYR     BB  427   5.780   3.449   6.625
    3TYR    SC1  428   5.959   3.224   6.575
    3TYR    SC2  429   5.828   3.022   6.591
    3TYR    SC3  430   5.945   2.927   6.402
    1TYR     BB  431   3.683   2.467   6.112
    1TYR    SC1  432   3.641   2.616   6.382
    1TYR    SC2  433   3.651   2.840   6.294
    1TYR    SC3  434   3.476   2.911   6.447
    2CYS     BB  435   3.436   2.719   5.979
    2CYS    SC1  436   3.465   2.632   5.694
    3TYR     BB  437   3.447   3.017   5.858
    3TYR    SC1  438   3.345   3.173   6.082
    3TYR    SC2  439   3.343   3.404   6.014
    3TYR    SC3  440   3.130   3.439   6.125
    1TYR     BB  441   0.130   7.677   7.331
    1TYR    SC1  442   0.407   7.662   7.471
    1TYR    SC2  443   0.332   7.729   7.690
    1TYR    SC3  444   0.485   7.572   7.794
    2CYS     BB  445   0.005   7.504   7.642
    2CYS    SC1  446  -0.284   7.523   7.566
    3TYR     BB  447  -0.097   7.592   7.934
    3TYR    SC1  448   0.133   7.523   8.099
    3TYR    SC2  449   0.079   7.581   8.327
    3TYR    SC3  450   0.187   7.379   8.407
    1TYR     BB  451   3.272   3.921   3.094
    1TYR    SC1  452   3.555   3.845   3.199
    1TYR    SC2  453   3.505   3.864   3.434
    1TYR    SC3  454   3.644   3.672   3.482
    2CYS     BB  455   3.151   3.691   3.367
    2CYS    SC1  456   2.861   3.757   3.326
    3TYR     BB  457   3.080   3.715   3.680
    3TYR    SC1  458   3.311   3.585   3.801
    3TYR    SC2  459   3.282   3.591   4.040
    3TYR    SC3  460   3.369   3.365   4.059
    1TYR     BB  461   1.498   1.449   5.087
    1TYR    SC1  462   1.538   1.518   5.388
    1TYR    SC2  463   1.354   1.672   5.407
    1TYR    SC3  464   1.304   1.590   5.630
    2CYS     BB  465   1.133   1.428   5.180
    2CYS    SC1  466   1.039   1.391   4.897
    3TYR     BB  467   0.885   1.633   5.203
    3TYR    SC1  468   0.861   1.662   5.492
    3TYR    SC2  469   0.679   1.813   5.535
    3TYR    SC3  470   0.607   1.677   5.723
    1TYR     BB  471   5.348   0.700   6.575
    1TYR    SC1  472   5.379   0.761   6.272
    1TYR    SC2  473   5.523   0.575   6.220
    1TYR    SC3  474   5.410   0.544   6.007
    2CYS     BB  475   5.302   0.344   6.460
    2CYS    SC1  476   5.298   0.230   6.737
    3TYR     BB  477   5.492   0.093   6.393
    3TYR    SC1  478   5.483   0.091   6.101
    3TYR    SC2  479   5.620  -0.092   6.025
    3TYR    SC3  480   5.459  -0.146   5.853
    1TYR     BB  481   4.507   4.313   0.084
    1TYR    SC1  482   4.220   4.212   0.152
    1TYR    SC2  483   4.284   4.065   0.332
    1TYR    SC3  484   4.085   4.127   0.457
    2CYS     BB  485   4.545   4.339   0.458
    2CYS    SC1  486   4.837   4.409   0.447
    3TYR     BB  487   4.632   4.144   0.700
    3TYR    SC1  488   4.374   4.088   0.823
    3TYR    SC2  489   4.414   3.941   1.010
    3TYR    SC3  490   4.249   4.061   1.143
    1TYR     BB  491   4.739   6.992   7.087
    1TYR    SC1  492   4.568   6.771   6.952
    1TYR    SC2  493   4.492   6.665   7.155
    1TYR    SC3  494   4.273   6.627   7.058
    2CYS     BB  495   4.444   7.026   7.320
    2CYS    SC1  496   4.580   7.221   7.503
    3TYR     BB  497   4.343   6.888   7.593
    3TYR    SC1  498   4.128   6.717   7.494
    3TYR    SC2  499   4.035   6.601   7.683
    3TYR    SC3  500   3.811   6.630   7.595
    1TYR     BB  501   0.367   1.228   4.426
    1TYR    SC1  502   0.358   1.153   4.728
    1TYR    SC2  503   0.442   1.362   4.812
    1TYR    SC3  504   0.290   1.350   5.001
    2CYS     BB  505   0.218   1.554   4.542
    2CYS    SC1  506   0.236   1.686   4.273
    3TYR     BB  507   0.329   1.836   4.653
    3TYR    SC1  508   0.269   1.814   4.937
    3TYR    SC2  509   0.344   2.016   5.043
    3TYR    SC3  510   0.146   2.019   5.184
    1TYR     BB  511   0.364   1.745   3.613
    1TYR    SC1  512   0.502   1.496   3.740
    1TYR    SC2  513   0.537   1.375   3.535
    1TYR    SC3  514   0.753   1.296   3.614
    2CYS     BB  515   0.638   1.717   3.355
    2CYS    SC1  516   0.525   1.932   3.179
    3TYR     BB  517   0.685   1.558   3.079
    3TYR    SC1  518   0.871   1.351   3.164
    3TYR    SC2  519   0.922   1.216   2.971
    3TYR    SC3  520   1.155   1.202   3.038
    1TYR     BB  521   5.493   2.485   2.705
    1TYR    SC1  522   5.420   2.520   3.005
    1TYR    SC2  523   5.598   2.385   3.094
    1TYR    SC3  524   5.625   2.539   3.280
    2CYS     BB  525   5.846   2.543   2.824
    2CYS    SC1  526   5.971   2.485   2.557
    3TYR     BB  527   6.087   2.363   2.941
    3TYR    SC1  528   6.078   2.434   3.223
    3TYR    SC2  529   6.252   2.310   3.334
    3TYR    SC3  530   6.307   2.502   3.472
    1TYR     BB  531   1.888   1.050   6.600
    1TYR    SC1  532   1.936   1.099   6.297
    1TYR    SC2  533   2.009   1.327   6.316
    1TYR    SC3  534   2.174   1.292   6.141
    2CYS     BB  535   2.217   1.228   6.643
    2CYS    SC1  536   2.202   1.236   6.942
    3TYR     BB  537   2.317   1.534   6.670
    3TYR    SC1  538   2.430   1.581   6.406
    3TYR    SC2  539   2.513   1.807   6.402
    3TYR    SC3  540   2.709   1.737   6.277
    1TYR     BB  541   1.859   6.870   5.555
    1TYR    SC1  542   2.097   6.795   5.368
    1TYR    SC2  543   1.965   6.721   5.181
    1TYR    SC3  544   2.123   6.820   5.026
    2CYS     BB  545   1.714   7.026   5.244
    2CYS    SC1  546   1.450   7.091   5.371
    3TYR     BB  547   1.535   6.929   4.994
    3TYR    SC1  548   1.735   6.916   4.783
    3TYR    SC2  549   1.623   6.844   4.582
    3TYR    SC3  550   1.753   7.000   4.449
    1TYR     BB  551   0.877   5.973   7.236
    1TYR    SC1  552   1.119   6.143   7.140
    1TYR    SC2  553   1.059   6.346   7.253
    1TYR    SC3  554   1.292   6.391   7.304
    2CYS     BB  555   0.948   6.131   7.571
    2CYS    SC1  556   0.705   6.016   7.704
    3TYR     BB  557   0.867   6.402   7.725
    3TYR    SC1  558   1.113   6.556   7.703
    3TYR    SC2  559   1.076   6.768   7.813
    3TYR    SC3  560   1.300   6.761   7.908
    1TYR     BB  561   4.738   1.663   1.057
    1TYR    SC1  562   4.615   1.704   1.339
    1TYR    SC2  563   4.545   1.476   1.374
    1TYR    SC3  564   4.607   1.490   1.609
    2CYS     BB  565   4.887   1.352   1.209
    2CYS    SC1  566   5.000   1.251   0.950
    3TYR     BB  567   4.797   1.046   1.254
    3TYR    SC1  568   4.738   1.045   1.539
    3TYR    SC2  569   4.666   0.823   1.598
    3TYR    SC3  570   4.791   0.835   1.806
    1TYR     BB  571   5.023   6.138   6.642
    1TYR    SC1  572   5.105   6.239   6.925
    1TYR    SC2  573   4.892   6.335   6.983
    1TYR    SC3  574   4.917   6.259   7.212
    2CYS     BB  575   4.710   6.021   6.815
    2CYS    SC1  576   4.573   5.937   6.561
    3TYR     BB  577   4.423   6.147   6.891
    3TYR    SC1  578   4.454   6.190   7.178
    3TYR    SC2  579   4.249   6.286   7.260
    3TYR    SC3  580   4.262   6.150   7.460
    1TYR     BB  581   5.846   1.905   0.460
    1TYR    SC1  582   5.978   1.787   0.203
    1TYR    SC2  583   5.856   1.921   0.045
    1TYR    SC3  584   6.054   1.942  -0.095
    2CYS     BB  585   5.896   2.236   0.287
    2CYS    SC1  586   5.747   2.393   0.495
    3TYR     BB  587   5.733   2.418   0.076
    3TYR    SC1  588   5.885   2.372  -0.168
    3TYR    SC2  589   5.780   2.500  -0.343
    3TYR    SC3  590   5.997   2.562  -0.432
    1TYR     BB  591   7.387   1.232   4.058
    1TYR    SC1  592   7.582   1.147   3.831
    1TYR    SC2  593   7.429   1.002   3.714
    1TYR    SC3  594   7.516   1.077   3.501
    2CYS     BB  595   7.137   1.268   3.778
    2CYS    SC1  596   6.905   1.323   3.961
    3TYR     BB  597   6.930   1.077   3.622
    3TYR    SC1  598   7.068   1.037   3.369
    3TYR    SC2  599   6.931   0.894   3.233
    3TYR    SC3  600   6.984   1.025   3.036
    1TYR     BB  601   6.367   6.219   6.225
    1TYR    SC1  602   6.514   6.416   6.034
    1TYR    SC2  603   6.384   6.611   6.088
    1TYR    SC3  604   6.582   6.751   6.075
    2CYS     BB  605   6.388   6.503   6.472
    2CYS    SC1  606   6.221   6.366   6.680
    3TYR     BB  607   6.214   6.763   6.547
    3TYR    SC1  608   6.375   6.976   6.430
    3TYR    SC2  609   6.263   7.184   6.473
    3TYR    SC3  610   6.475   7.293   6.519
    1TYR     BB  611   3.648   4.889   6.862
    1TYR    SC1  612   3.613   5.133   6.672
    1TYR    SC2  613   3.374   5.121   6.653
    1TYR    SC3  614   3.358   5.364   6.655
    2CYS     BB  615   3.352   5.037   7.043
    2CYS    SC1  616   3.322   4.806   7.233
    3TYR     BB  617   3.031   5.020   7.021
    3TYR    SC1  618   2.969   5.278   6.901
    3TYR    SC2  619   2.730   5.290   6.873
    3TYR    SC3  620   2.730   5.523   6.941
    1TYR     BB  621   4.230   7.639   1.718
    1TYR    SC1  622   4.149   7.820   1.478
    1TYR    SC2  623   4.354   7.946   1.467
    1TYR    SC3  624   4.344   7.948   1.225
    2CYS     BB  625   4.559   7.611   1.536
    2CYS    SC1  626   4.695   7.459   1.757
    3TYR     BB  627   4.835   7.777   1.523
    3TYR    SC1  628   4.810   7.909   1.265
    3TYR    SC2  629   5.007   8.042   1.231
    3TYR    SC3  630   5.015   7.979   0.997
    1TYR     BB  631   0.123   6.868   5.928
    1TYR    SC1  632   0.029   7.076   6.139
    1TYR    SC2  633   0.148   6.982   6.326
    1TYR    SC3  634   0.198   7.205   6.410
    2CYS     BB  635   0.461   6.915   6.087
    2CYS    SC1  636   0.593   6.697   5.928
    3TYR     BB  637   0.623   6.789   6.336
    3TYR    SC1  638   0.604   7.004   6.532
    3TYR    SC2  639   0.719   6.931   6.730
    3TYR    SC3  640   0.812   7.154   6.761
    1TYR     BB  641   7.037   3.641   5.488
    1TYR    SC1  642   6.978   3.879   5.297
    1TYR    SC2  643   6.774   3.950   5.402
    1TYR    SC3  644   6.831   4.183   5.365
    2CYS     BB  645   6.940   3.884   5.759
    2CYS    SC1  646   6.951   3.680   5.979
    3TYR     BB  647   6.667   3.978   5.903
    3TYR    SC1  648   6.627   4.240   5.782
    3TYR    SC2  649   6.425   4.333   5.875
    3TYR    SC3  650   6.528   4.552   5.887
    1TYR     BB  651   5.632   1.360   7.289
    1TYR    SC1  652   5.713   1.657   7.337
    1TYR    SC2  653   5.753   1.713   7.106
    1TYR    SC3  654   5.656   1.933   7.140
    2CYS     BB  655   5.430   1.500   7.004
    2CYS    SC1  656   5.350   1.231   6.897
    3TYR     BB  657   5.481   1.573   6.694
    3TYR    SC1  658   5.495   1.864   6.706
    3TYR    SC2  659   5.533   1.944   6.482
    3TYR    SC3  660   5.379   2.128   6.518
    1TYR     BB  661   7.995   4.382   4.998
    1TYR    SC1  662   7.742   4.378   5.180
    1TYR    SC2  663   7.648   4.174   5.093
    1TYR    SC3  664   7.574   4.110   5.315
    2CYS     BB  665   8.015   4.015   5.082
    2CYS    SC1  666   8.242   3.960   4.894
    3TYR     BB  667   7.892   3.741   4.966
    3TYR    SC1  668   7.688   3.681   5.165
    3TYR    SC2  669   7.580   3.476   5.099
    3TYR    SC3  670   7.573   3.401   5.330
    1TYR     BB  671   7.490   5.721   6.642
    1TYR    SC1  672   7.251   5.538   6.563
    1TYR    SC2  673   7.191   5.654   6.361
    1TYR    SC3  674   7.140   5.443   6.252
    2CYS     BB  675   7.579   5.696   6.276
    2CYS    SC1  676   7.803   5.895   6.293
    3TYR     BB  677   7.502   5.852   6.005
    3TYR    SC1  678   7.321   5.661   5.879
    3TYR    SC2  679   7.248   5.757   5.670
    3TYR    SC3  680   7.265   5.541   5.561
    1TYR     BB  681   2.662   4.285   0.472
    1TYR    SC1  682   2.488   4.251   0.217
    1TYR    SC2  683   2.660   4.156   0.077
    1TYR    SC3  684   2.499   4.006  -0.025
    2CYS     BB  685   2.786   3.939   0.388
    2CYS    SC1  686   2.996   3.936   0.603
    3TYR     BB  687   3.017   3.811   0.204
    3TYR    SC1  688   2.862   3.709  -0.020
    3TYR    SC2  689   3.015   3.607  -0.175
    3TYR    SC3  690   2.859   3.426  -0.216
    1TYR     BB  691   1.224   4.222   6.989
    1TYR    SC1  692   1.080   4.492   6.931
    1TYR    SC2  693   0.935   4.489   7.123
    1TYR    SC3  694   0.961   4.729   7.151
    2CYS     BB  695   1.238   4.350   7.343
    2CYS    SC1  696   1.350   4.095   7.455
    3TYR     BB  697   1.047   4.344   7.602
    3TYR    SC1  698   0.948   4.618   7.606
    3TYR    SC2  699   0.800   4.639   7.794
    3TYR    SC3  700   0.888   4.860   7.843
    1TYR     BB  701   1.386   6.157   1.130
    1TYR    SC1  702   1.549   6.415   1.188
    1TYR    SC2  703   1.557   6.496   0.962
    1TYR    SC3  704   1.531   6.725   1.038
    2CYS     BB  705   1.177   6.384   0.913
    2CYS    SC1  706   1.009   6.162   0.801
    3TYR     BB  707   1.185   6.490   0.609
    3TYR    SC1  708   1.277   6.764   0.647
    3TYR    SC2  709   1.291   6.867   0.430
    3TYR    SC3  710   1.201   7.074   0.518
    1TYR     BB  711   2.246   0.650   2.872
    1TYR    SC1  712   2.500   0.829   2.871
    1TYR    SC2  713   2.599   0.740   3.072
    1TYR    SC3  714   2.820   0.756   2.973
    2CYS     BB  715   2.487   0.374   2.958
    2CYS    SC1  716   2.273   0.169   3.004
    3TYR     BB  717   2.618   0.252   3.227
    3TYR    SC1  718   2.889   0.358   3.211
    3TYR    SC2  719   3.009   0.279   3.404
    3TYR    SC3  720   3.208   0.242   3.270
    1TYR     BB  721   2.183   3.822   2.050
    1TYR    SC1  722   1.968   3.914   2.255
    1TYR    SC2  723   2.012   3.746   2.421
    1TYR    SC3  724   1.975   3.907   2.599
    2CYS     BB  725   2.404   3.790   2.354
    2CYS    SC1  726   2.633   3.666   2.205
    3TYR     BB  727   2.467   3.565   2.576
    3TYR    SC1  728   2.322   3.669   2.806
    3TYR    SC2  729   2.354   3.515   2.988
    3TYR    SC3  730   2.377   3.699   3.145
    1TYR     BB  731   7.404   4.826   3.293
    1TYR    SC1  732   7.489   5.110   3.199
    1TYR    SC2  733   7.616   5.040   3.007
    1TYR    SC3  734   7.535   5.231   2.880
    2CYS     BB  735   7.336   4.767   2.927
    2CYS    SC1  736   7.275   4.475   2.961
    3TYR     BB  737   7.503   4.671   2.669
    3TYR    SC1  738   7.539   4.923   2.527
    3TYR    SC2  739   7.664   4.876   2.327
    3TYR    SC3  740   7.526   5.030   2.201
    1TYR     BB  741   1.685   0.994   4.057
    1TYR    SC1  742   1.698   0.998   4.368
    1TYR    SC2  743   1.902   0.872   4.390
    1TYR    SC3  744   1.972   1.012   4.575
    2CYS     BB  745   2.053   1.072   4.078
    2CYS    SC1  746   2.100   1.046   3.782
    3TYR     BB  747   2.327   0.904   4.105
    3TYR    SC1  748   2.396   0.951   4.384
    3TYR    SC2  749   2.601   0.834   4.429
    3TYR    SC3  750   2.681   1.019   4.565
    1TYR     BB  751   3.918   1.579   6.831
    1TYR    SC1  752   4.075   1.394   6.636
    1TYR    SC2  753   4.168   1.248   6.803
    1TYR    SC3  754   4.138   1.057   6.656
    2CYS     BB  755   3.818   1.255   6.995
    2CYS    SC1  756   3.679   1.388   7.226
    3TYR     BB  757   3.938   1.059   7.221
    3TYR    SC1  758   4.036   0.838   7.057
    3TYR    SC2  759   4.133   0.675   7.206
    3TYR    SC3  760   4.038   0.494   7.075
    1TYR     BB  761   6.338   5.829   1.961
    1TYR    SC1  762   6.519   5.621   2.106
    1TYR    SC2  763   6.343   5.469   2.170
    1TYR    SC3  764   6.487   5.279   2.125
    2CYS     BB  765   6.172   5.525   1.813
    2CYS    SC1  766   5.953   5.680   1.678
    3TYR     BB  767   5.936   5.322   1.895
    3TYR    SC1  768   6.087   5.087   1.975
    3TYR    SC2  769   5.929   4.918   2.043
    3TYR    SC3  770   6.062   4.746   1.934
    1TYR     BB  771   5.161   7.213   0.185
    1TYR    SC1  772   5.304   6.974   0.326
    1TYR    SC2  773   5.480   7.103   0.428
    1TYR    SC3  774   5.468   6.965   0.628
    2CYS     BB  775   5.215   7.389   0.513
    2CYS    SC1  776   5.115   7.654   0.414
    3TYR     BB  777   5.448   7.564   0.651
    3TYR    SC1  778   5.557   7.372   0.842
    3TYR    SC2  779   5.737   7.481   0.960
    3TYR    SC3  780   5.667   7.378   1.168
    1TYR     BB  781   5.896   3.854   2.110
    1TYR    SC1  782   5.853   3.551   2.054
    1TYR    SC2  783   6.012   3.469   2.216
    1TYR    SC3  784   5.865   3.284   2.271
    2CYS     BB  785   5.887   3.749   2.473
    2CYS    SC1  786   5.959   4.020   2.578
    3TYR     BB  787   6.098   3.642   2.691
    3TYR    SC1  788   6.029   3.359   2.704
    3TYR    SC2  789   6.176   3.255   2.863
    3TYR    SC3  790   5.993   3.120   2.948
    1TYR     BB  791   2.816   7.768   5.972
    1TYR    SC1  792   2.659   7.546   6.122
    1TYR    SC2  793   2.796   7.543   6.321
    1TYR    SC3  794   2.599   7.509   6.459
    2CYS     BB  795   2.816   7.942   6.307
    2CYS    SC1  796   2.995   8.166   6.218
    3TYR     BB  797   2.999   7.941   6.572
    3TYR    SC1  798   2.833   7.787   6.755
    3TYR    SC2  799   2.952   7.772   6.965
    3TYR    SC3  800   2.744   7.803   7.087
    1TYR     BB  801   3.706   5.566   0.923
    1TYR    SC1  802   3.797   5.421   0.663
    1TYR    SC2  803   3.658   5.226   0.689
    1TYR    SC3  804   3.617   5.221   0.450
    2CYS     BB  805   3.360   5.461   0.815
    2CYS    SC1  806   3.227   5.557   1.066
    3TYR     BB  807   3.172   5.202   0.851
    3TYR    SC1  808   3.191   5.081   0.586
    3TYR    SC2  809   3.056   4.882   0.587
    3TYR    SC3  810   2.976   4.930   0.363
    1TYR     BB  811   4.630  -0.132   7.971
    1TYR    SC1  812   4.863  -0.273   7.821
    1TYR    SC2  813   4.930  -0.085   7.687
    1TYR    SC3  814   5.164  -0.145   7.713
    2CYS     BB  815   4.874   0.153   8.004
    2CYS    SC1  816   4.674   0.342   8.124
    3TYR     BB  817   4.962   0.408   7.828
    3TYR    SC1  818   5.221   0.320   7.727
    3TYR    SC2  819   5.309   0.497   7.589
    3TYR    SC3  820   5.532   0.459   7.678
    1TYR     BB  821   1.918   2.813   7.327
    1TYR    SC1  822   2.043   2.930   7.587
    1TYR    SC2  823   1.841   2.933   7.718
    1TYR    SC3  824   1.964   2.866   7.916
    2CYS     BB  825   1.741   2.578   7.563
    2CYS    SC1  826   1.571   2.454   7.350
    3TYR     BB  827   1.470   2.579   7.736
    3TYR    SC1  828   1.574   2.623   8.005
    3TYR    SC2  829   1.386   2.628   8.156
    3TYR    SC3  830   1.511   2.502   8.321
    1TYR     BB  831   0.576   1.983   0.718
    1TYR    SC1  832   0.778   1.823   0.892
    1TYR    SC2  833   0.616   1.727   1.042
    1TYR    SC3  834   0.740   1.518   1.047
    2CYS     BB  835   0.370   1.667   0.733
    2CYS    SC1  836   0.132   1.787   0.595
    3TYR     BB  837   0.152   1.538   0.931
    3TYR    SC1  838   0.310   1.332   1.064
    3TYR    SC2  839   0.166   1.220   1.221
    3TYR    SC3  840   0.264   1.006   1.162
    1TYR     BB  841   4.311   4.581   6.409
    1TYR    SC1  842   4.121   4.418   6.593
    1TYR    SC2  843   3.941   4.393   6.434
    1TYR    SC3  844   3.899   4.167   6.513
    2CYS     BB  845   4.212   4.328   6.147
    2CYS    SC1  846   4.356   4.468   5.924
    3TYR     BB  847   3.974   4.294   5.932
    3TYR    SC1  848   3.811   4.089   6.060
    3TYR    SC2  849   3.623   4.046   5.915
    3TYR    SC3  850   3.639   3.808   5.961
    1TYR     BB  851   3.065   2.818   7.476
    1TYR    SC1  852   3.229   2.558   7.426
    1TYR    SC2  853   3.267   2.503   7.658
    1TYR    SC3  854   3.239   2.266   7.609
    2CYS     BB  855   2.891   2.612   7.739
    2CYS    SC1  856   2.730   2.841   7.847
    3TYR     BB  857   2.938   2.538   8.050
    3TYR    SC1  858   3.033   2.264   8.030
    3TYR    SC2  859   3.076   2.186   8.253
    3TYR    SC3  860   2.984   1.968   8.198
    1TYR     BB  861   7.023   1.887   6.574
    1TYR    SC1  862   7.270   1.772   6.424
    1TYR    SC2  863   7.153   1.701   6.226
    1TYR    SC3  864   7.340   1.769   6.087
    2CYS     BB  865   6.937   2.037   6.239
    2CYS    SC1  866   6.670   2.142   6.328
    3TYR     BB  867   6.778   1.945   5.974
    3TYR    SC1  868   6.999   1.893   5.791
    3TYR    SC2  869   6.904   1.821   5.581
    3TYR    SC3  870   7.068   1.951   5.458
    1TYR     BB  871   4.300   3.269   4.816
    1TYR    SC1  872   4.551   3.451   4.789
    1TYR    SC2  873   4.661   3.322   4.618
    1TYR    SC3  874   4.738   3.525   4.510
    2CYS     BB  875   4.309   3.265   4.439
    2CYS    SC1  876   4.088   3.063   4.412
    3TYR     BB  877   4.454   3.092   4.209
    3TYR    SC1  878   4.661   3.277   4.120
    3TYR    SC2  879   4.785   3.168   3.946
    3TYR    SC3  880   4.797   3.375   3.820
    1TYR     BB  881   4.228   1.420   4.449
    1TYR    SC1  882   4.150   1.426   4.148
    1TYR    SC2  883   4.365   1.494   4.064
    1TYR    SC3  884   4.339   1.349   3.871
    2CYS     BB  885   4.540   1.248   4.326
    2CYS    SC1  886   4.674   1.247   4.595
    3TYR     BB  887   4.829   1.337   4.216
    3TYR    SC1  888   4.799   1.286   3.931
    3TYR    SC2  889   5.007   1.347   3.824
    3TYR    SC3  890   4.992   1.153   3.678
    1TYR     BB  891   7.692   5.968   1.347
    1TYR    SC1  892   7.390   6.022   1.296
    1TYR    SC2  893   7.418   6.161   1.101
    1TYR    SC3  894   7.221   6.061   0.998
    2CYS     BB  895   7.707   5.915   0.974
    2CYS    SC1  896   8.006   5.888   0.966
    3TYR     BB  897   7.747   6.099   0.713
    3TYR    SC1  898   7.475   6.109   0.607
    3TYR    SC2  899   7.480   6.243   0.408
    3TYR    SC3  900   7.325   6.091   0.298
    1TYR     BB  901   2.306   6.237   6.404
    1TYR    SC1  902   2.609   6.233   6.477
    1TYR    SC2  903   2.693   6.246   6.251
    1TYR    SC3  904   2.873   6.392   6.324
    2CYS     BB  905   2.406   6.512   6.166
    2CYS    SC1  906   2.135   6.533   6.039
    3TYR     BB  907   2.516   6.532   5.864
    3TYR    SC1  908   2.797   6.596   5.909
    3TYR    SC2  909   2.902   6.616   5.693
    3TYR    SC3  910   3.032   6.806   5.771
    1TYR     BB  911   0.966   3.924   2.011
    1TYR    SC1  912   0.685   4.057   1.997
    1TYR    SC2  913   0.557   3.854   2.019
    1TYR    SC3  914   0.393   3.969   2.157
    2CYS     BB  915   0.817   3.725   2.294
    2CYS    SC1  916   1.056   3.547   2.326
    3TYR     BB  917   0.648   3.453   2.326
    3TYR    SC1  918   0.381   3.558   2.382
    3TYR    SC2  919   0.234   3.369   2.409
    3TYR    SC3  920   0.121   3.481   2.593
    1TYR     BB  921   2.100   7.226   7.339
    1TYR    SC1  922   2.174   7.443   7.549
    1TYR    SC2  923   2.306   7.302   7.692
    1TYR    SC3  924   2.463   7.483   7.731
    2CYS     BB  925   2.463   7.129   7.367
    2CYS    SC1  926   2.437   6.885   7.194
    3TYR     BB  927   2.641   6.938   7.556
    3TYR    SC1  928   2.776   7.134   7.725
    3TYR    SC2  929   2.917   7.013   7.878
    3TYR    SC3  930   3.092   7.180   7.853
    1TYR     BB  931   6.015   5.433   7.524
    1TYR    SC1  932   5.719   5.345   7.489
    1TYR    SC2  933   5.700   5.226   7.698
    1TYR    SC3  934   5.472   5.307   7.727
    2CYS     BB  935   5.911   5.514   7.877
    2CYS    SC1  936   6.189   5.579   7.970
    3TYR     BB  937   5.887   5.356   8.157
    3TYR    SC1  938   5.599   5.320   8.178
    3TYR    SC2  939   5.555   5.202   8.383
    3TYR    SC3  940   5.360   5.341   8.426
    1TYR     BB  941   0.877   5.849   5.169
    1TYR    SC1  942   0.609   5.813   5.016
    1TYR    SC2  943   0.474   5.952   5.159
    1TYR    SC3  944   0.352   6.037   4.967
    2CYS     BB  945   0.777   6.212   5.182
    2CYS    SC1  946   1.004   6.294   5.360
    3TYR     BB  947   0.600   6.401   5.374
    3TYR    SC1  948   0.359   6.436   5.213
    3TYR    SC2  949   0.208   6.575   5.338
    3TYR    SC3  950   0.144   6.693   5.135
    1TYR     BB  951   6.839   3.261   1.134
    1TYR    SC1  952   7.125   3.197   1.029
    1TYR    SC2  953   7.104   2.957   1.035
    1TYR    SC3  954   7.232   2.939   0.829
    2CYS     BB  955   6.731   2.991   0.894
    2CYS    SC1  956   6.445   2.991   0.985
    3TYR     BB  957   6.701   2.670   0.900
    3TYR    SC1  958   6.933   2.588   0.744
    3TYR    SC2  959   6.932   2.347   0.735
    3TYR    SC3  960   7.002   2.353   0.502
    1TYR     BB  961   5.178   2.953   7.183
    1TYR    SC1  962   5.129   2.646   7.199
    1TYR    SC2  963   4.949   2.638   7.039
    1TYR    SC3  964   5.032   2.427   6.952
    2CYS     BB  965   5.145   2.902   6.811
    2CYS    SC1  966   5.155   3.194   6.746
    3TYR     BB  967   4.906   2.893   6.596
    3TYR    SC1  968   4.886   2.607   6.544
    3TYR    SC2  969   4.710   2.574   6.383
    3TYR    SC3  970   4.842   2.404   6.270
    1TYR     BB  971   0.527   2.310   6.026
    1TYR    SC1  972   0.757   2.411   5.843
    1TYR    SC2  973   0.833   2.589   5.987
    1TYR    SC3  974   1.064   2.542   5.927
    2CYS     BB  975   0.782   2.347   6.302
    2CYS    SC1  976   0.588   2.286   6.522
    3TYR     BB  977   0.883   2.583   6.497
    3TYR    SC1  978   1.139   2.651   6.377
    3TYR    SC2  979   1.236   2.828   6.508
    3TYR    SC3  980   1.456   2.727   6.487
    1TYR     BB  981   8.285   8.034   1.947
    1TYR    SC1  982   8.376   7.785   2.111
    1TYR    SC2  983   8.173   7.757   2.236
    1TYR    SC3  984   8.193   7.516   2.221
    2CYS     BB  985   7.963   7.842   1.906
    2CYS    SC1  986   7.818   8.067   1.771
    3TYR     BB  987   7.689   7.805   2.072
    3TYR    SC1  988   7.726   7.539   2.185
    3TYR    SC2  989   7.530   7.488   2.316
    3TYR    SC3  990   7.533   7.259   2.235
    1TYR     BB  991   7.226   7.166   1.638
    1TYR    SC1  992   6.983   7.332   1.537
    1TYR    SC2  993   7.071   7.381   1.318
    1TYR    SC3  994   6.850   7.355   1.220
    2CYS     BB  995   7.211   7.007   1.296
    2CYS    SC1  996   7.463   6.848   1.333
    3TYR     BB  997   7.330   7.069   1.003
    3TYR    SC1  998   7.093   7.169   0.865
    3TYR    SC2  999   7.157   7.223   0.640
    3TYR    SC3 1000   6.949   7.132   0.555
    4W        W 1001   0.349   1.633   2.100
    5W        W 1002   4.010   5.867   1.494
    6W        W 1003   3.772   4.299   0.403
    7W        W 1004   5.683   0.072   4.002
    8W        W 1005   3.484   7.360   2.147
    9W        W 1006   3.102   5.951   3.455
   10W        W 1007   3.373   7.676   5.025
   11W        W 1008   3.635   6.731   2.684
   12W        W 1009   3.682   2.669   5.460
   13W        W 1010   6.617   2.508   3.357
   14W        W 1011   2.972   7.428   4.929
   15W        W 1012   7.158   3.321   3.628
   16W        W 1013   6.117   6.459   3.240
   17W        W 1014   7.256   3.126   1.905
   18W        W 1015   4.479   7.132   6.676
   19W        W 1016   3.548   2.037   0.913
   20W        W 1017   4.614   4.267   3.949
   21W        W 1018   3.255   5.763   3.879
   22W        W 1019   2.552   6.182   3.404
   23W        W 1020   5.594   4.501   0.154
   24W        W 1021   3.957   5.410   1.281
   25W        W 1022   0.331   3.089   3.924
   26W        W 1023   2.937   0.037   5.008
   27W        W 1024   1.453   4.276   3.805
   28W        W 1025   0.429   6.932   3.776
   29W        W 1026   2.769   0.900   5.002
   30W        W 1027   1.095   7.587   5.519
   31W        W 1028   7.929   1.101   3.258
   32W        W 1029   0.180   4.842   4.244
   33W        W 1030   6.949   4.572   2.275
   34W        W 1031   7.654   6.841   5.972
   35W        W 1032   3.181   1.827   1.211
   36W        W 1033   4.354   0.291   4.467
   37W        W 1034   3.860   6.313   1.114
   38W        W 1035   3.430   4.024   2.538
   39W        W 1036   3.545   3.352   0.603
   40W        W 1037   2.630   7.135   2.585
   41W        W 1038   5.533   0.490   3.665
   42W        W 1039   7.851   2.797   3.902
   43W        W 1040   4.599   2.116   6.133
   44W        W 1041   4.639   0.850   7.747
   45W        W 1042   1.119   5.630   1.968
   46W        W 1043   2.617   7.080   0.519
   47W        W 1044   3.481   0.246   1.393
   48W        W 1045   1.407   0.692   3.619
   49W        W 1046   1.602   2.575   3.865
   50W        W 1047   3.987   7.321   3.032
   51W        W 1048   1.242   7.332   1.453
   52W        W 1049   1.855   6.457   3.898
   53W        W 1050   5.253   5.959   0.677
   54W        W 1051   4.050   5.464   2.603
   55W        W 1052   2.220   4.370   2.646
   56W        W 1053   6.449   1.641   4.888
   57W        W 1054   0.387   1.607   7.962
   58W        W 1055   2.307   7.508   1.384
   59W        W 1056   6.442   3.540   3.828
   60W        W 1057   3.367   3.532   4.367
   61W        W 1058   3.230   4.191   0.394
   62W        W 1059   3.462   3.638   5.146
   63W        W 1060   6.619   6.519   2.671
   64W        W 1061   3.211   0.699   7.320
   65W        W 1062   6.292   0.807   0.486
   66W        W 1063   5.880   5.100   7.157
   67W        W 1064   2.098   2.272   1.668
   68W        W 1065   6.438   4.924   7.950
   69W        W 1066   5.937   5.515   6.608
   70W        W 1067   1.608   1.490   1.416
   71W        W 1068   0.024   0.654   7.928
   72W        W 1069   5.349   6.095   3.993
   73W        W 1070   1.816   2.172   7.150
   74W        W 1071   5.173   2.658   1.706
   75W        W 1072   6.188   7.690   0.733
   76W        W 1073   1.268   4.458   2.892
   77W        W 1074   7.814   7.422   5.045
   78W        W 1075   0.819   0.266   0.956
   79W        W 1076   0.750   1.601   4.399
   80W        W 1077   1.797   0.656   7.022
   81W        W 1078   4.102   4.177   4.143
   82W        W 1079   2.391   5.181   5.671
   83W        W 1080   0.259   7.046   0.824
   84W        W 1081   5.650   7.086   2.695
   85W        W 1082   6.056   5.766   5.520
   86W        W 1083   5.269   3.839   4.784
   87W        W 1084   7.915   3.693   5.877
   88W        W 1085   2.142   3.523   0.605
   89W        W 1086   5.241   5.224   4.271
   90W        W 1087   2.032   0.198   0.976
   91W        W 1088   5.922   4.214   1.251
   92W        W 1089   2.383   2.228   2.244
   93W        W 1090   6.591   0.284   2.179
   94W        W 1091   0.546   4.305   3.982
   95W        W 1092   2.239   4.351   6.496
   96W        W 1093   6.496   5.044   1.240
   97W        W 1094   2.076   4.846   5.023
   98W        W 1095   0.275   5.572   1.494
   99W        W 1096   7.405   3.890   1.145
  100W        W 1097   3.515   4.667   4.942
  101W        W 1098   3.714   5.802   5.639
  102W        W 1099   0.394   3.751   3.247
  103W        W 1100   6.165   6.953   1.111
  104W        W 1101   7.728   0.116   7.149
  105W        W 1102   3.544   5.250   4.852
  106W        W 1103   7.724   7.128   1.245
  107W        W 1104   4.011   0.806   7.564
  108W        W 1105   0.266   3.307   6.067
  109W        W 1106   0.569   2.820   0.459
  110W        W 1107   0.853   7.400   1.141
  111W        W 1108   2.052   0.513   6.055
  112W        W 1109   3.922   2.298   4.099
  113W        W 1110   0.770   0.423   0.434
  114W        W 1111   2.607   7.020   6.969
  115W        W 1112   2.810   7.885   0.487
  116W        W 1113   3.742   4.648   2.876
  117W        W 1114   2.997   4.317   1.667
  118W        W 1115   6.865   3.091   5.000
  119W        W 1116   3.990   4.941   5.149
  120W        W 1117   3.354   0.720   1.981
  121W        W 1118   2.808   2.563   2.111
  122W        W 1119   4.883   2.466   7.680
  123W        W 1120   7.565   5.936   3.753
  124W        W 1121   4.262   7.625   6.543
  125W        W 1122   4.190   2.869   5.895
  126W        W 1123   7.276   5.425   2.118
  127W        W 1124   6.424   7.762   5.954
  128W        W 1125   0.846   5.585   3.603
  129W        W 1126   4.572   5.569   2.581
  130W        W 1127   3.491   7.120   0.669
  131W        W 1128   3.830   6.778   4.809
  132W        W 1129   4.149   3.775   0.503
  133W        W 1130   5.990   6.957   3.045
  134W        W 1131   3.216   4.376   2.811
  135W        W 1132   0.845   5.393   2.613
  136W        W 1133   2.615   3.713   1.550
  137W        W 1134   3.555   4.534   2.444
  138W        W 1135   4.290   5.252   2.235
  139W        W 1136   7.292   5.438   1.135
  140W        W 1137   4.900   2.969   1.462
  141W        W 1138   4.043   3.164   1.239
  142W        W 1139   2.314   6.966   3.819
  143W        W 1140   5.000   7.333   7.344
  144W        W 1141   3.631   5.801   0.429
  145W        W 1142   6.190   6.168   2.866
  146W        W 1143   0.307   4.777   6.065
  147W        W 1144   0.049   0.664   0.817
  148W        W 1145   0.564   4.822   1.825
  149W        W 1146   3.710   7.655   3.799
  150W        W 1147   7.245   2.690   7.612
  151W        W 1148   4.274   3.116   2.080
  152W        W 1149   5.786   5.809   0.667
  153W        W 1150   0.612   1.030   7.085
  154W        W 1151   2.590   4.619   1.098
  155W        W 1152   0.505   5.802   6.467
  156W        W 1153   1.273   0.657   6.567
  157W        W 1154   0.325   6.638   1.251
  158W        W 1155   6.418   3.571   0.115
  159W        W 1156   1.334   5.273   7.004
  160W        W 1157   5.923   0.865   0.157
  161W        W 1158   2.861   6.097   1.457
  162W        W 1159   2.192   5.954   2.613
  163W        W 1160   7.281   6.851   6.945
  164W        W 1161   3.774   1.376   4.335
  165W        W 1162   3.628   3.244   0.059
  166W        W 1163   0.347   7.146   3.114
  167W        W 1164   3.678   3.672   0.904
  168W        W 1165   7.741   0.449   0.390
  169W        W 1166   1.469   6.671   5.382
  170W        W 1167   2.608   7.013   1.645
  171W        W 1168   6.769   5.310   0.874
  172W        W 1169   6.121   1.236   7.826
  173W        W 1170   7.235   4.956   6.943
  174W        W 1171   3.865   0.144   3.816
  175W        W 1172   5.208   1.841   7.851
  176W        W 1173   4.545   3.698   6.398
  177W        W 1174   3.100   4.999   4.788
  178W        W 1175   5.971   3.294   4.615
  179W        W 1176   2.950   7.365   2.256
  180W        W 1177   1.495   6.815   1.374
  181W        W 1178   3.677   4.566   4.058
  182W        W 1179   3.060   1.377   1.006
  183W        W 1180   1.439   3.755   2.342
  184W        W 1181   6.225   4.142   0.710
  185W        W 1182   7.406   4.118   1.879
  186W        W 1183   4.317   0.499   1.908
  187W        W 1184   2.654   3.201   0.720
  188W        W 1185   1.345   2.618   2.437
  189W        W 1186   0.190   2.337   5.226
  190W        W 1187   2.368   0.020   4.519
  191W        W 1188   2.731   6.631   0.322
  192W        W 1189   0.428   1.998   1.685
  193W        W 1190   5.736   6.311   2.823
  194W        W 1191   1.161   0.086   5.427
  195W        W 1192   5.285   7.593   5.142
  196W        W 1193   7.071   3.024   0.035
  197W        W 1194   5.973   2.274   4.878
  198W        W 1195   6.196   7.507   4.890
  199W        W 1196   3.485   4.051   4.160
  200W        W 1197   2.242   4.833   0.719
  201W        W 1198   0.298   4.821   0.245
  202W        W 1199   3.681   2.474   1.733
  203W        W 1200   1.186   3.504   2.720
  204W        W 1201   7.495   0.885   7.167
  205W        W 1202   3.843   3.473   5.560
  206W        W 1203   2.179   5.064   7.217
  207W        W 1204   4.348   6.632   6.331
  208W        W 1205   0.068   0.328   2.342
  209W        W 1206   6.524   1.236   6.236
  210W        W 1207   5.849   0.071   4.560
  211W        W 1208   5.832   7.786   6.897
  212W        W 1209   0.698   6.968   1.731
  213W        W 1210   2.499   6.618   5.107
  214W        W 1211   2.303   2.590   3.904
  215W        W 1212   0.907   7.773   0.823
  216W        W 1213   0.171   7.871   4.160
  217W        W 1214   0.862   3.544   6.816
  218W        W 1215   3.565   0.598   0.972
  219W        W 1216   7.566   2.429   7.824
  220W        W 1217   3.559   1.697   5.985
  221W        W 1218   1.325   5.009   3.067
  222W        W 1219   3.618   0.917   3.868
  223W        W 1220   1.347   4.575   1.821
  224W        W 1221   6.058   3.145   0.224
  225W        W 1222   2.843   6.163   4.726
  226W        W 1223   1.682   5.368   1.491
  227W        W 1224   3.664   4.151   3.681
  228W        W 1225   2.867   2.023   2.130
  229W        W 1226   3.002   6.463   5.114
  230W        W 1227   7.841   5.773   4.474
  231W        W 1228   6.988   1.672   0.535
  232W        W 1229   2.995   1.542   6.545
  233W        W 1230   7.851   2.088   6.810
  234W        W 1231   1.278   4.324   5.223
  235W        W 1232   1.768   4.770   0.877
  236W        W 1233   0.995   2.283   0.036
  237W        W 1234   1.393   3.615   0.220
  238W        W 1235   2.434   5.388   4.233
  239W        W 1236   6.572   3.457   4.822
  240W        W 1237   5.078   0.628   5.918
  241W        W 1238   2.301   7.087   5.753
  242W        W 1239   1.257   2.988   3.634
  243W        W 1240   1.958   2.741   4.232
  244W        W 1241   1.171   5.164   0.345
  245W        W 1242   6.559   4.297   3.034
  246W        W 1243   1.930   4.403   3.622
  247W        W 1244   7.497   7.503   2.703
  248W        W 1245   0.845   0.004   1.893
  249W        W 1246   3.685   4.593   1.142
  250W        W 1247   2.903   4.153   4.253
  251W        W 1248   4.763   6.233   1.425
  252W        W 1249   3.548   0.353   4.147
  253W        W 1250   2.900   7.568   1.425
  254W        W 1251   1.814   4.223   0.816
  255W        W 1252   2.405   3.182   5.125
  256W        W 1253   1.022   4.864   2.682
  257W        W 1254   2.301   1.283   3.573
  258W        W 1255   5.328   7.070   1.319
  259W        W 1256   5.649   3.354   2.642
  260W        W 1257   3.528   6.732   6.577
  261W        W 1258   5.659   4.976   2.782
  262W        W 1259   7.641   5.803   3.075
  263W        W 1260   5.314   0.911   3.796
  264W        W 1261   5.943   4.663   6.881
  265W        W 1262   1.579   5.387   0.174
  266W        W 1263   0.395   0.226   3.592
  267W        W 1264   0.846   4.409   1.617
  268W        W 1265   7.103   5.197   3.607
  269W        W 1266   0.108   5.363   5.096
  270W        W 1267   4.218   6.098   3.471
  271W        W 1268   5.229   4.522   7.471
  272W        W 1269   1.375   3.430   1.164
  273W        W 1270   1.671   4.157   5.560
  274W        W 1271   7.044   7.394   2.370
  275W        W 1272   1.383   5.875   3.643
  276W        W 1273   5.422   3.768   7.884
  277W        W 1274   6.533   5.993   5.084
  278W        W 1275   3.025   4.593   7.244
  279W        W 1276   4.435   3.823   1.570
  280W        W 1277   5.675   6.250   7.689
  281W        W 1278   2.804   4.582   3.176
  282W        W 1279   4.342   0.358   3.837
  283W        W 1280   4.244   0.539   5.236
  284W        W 1281   3.775   3.827   1.334
  285W        W 1282   1.353   5.632   0.531
  286W        W 1283   0.524   2.258   3.431
  287W        W 1284   2.563   2.588   2.961
  288W        W 1285   3.545   7.783   0.149
  289W        W 1286   5.677   6.043   5.750
  290W        W 1287   1.748   1.354   0.943
  291W        W 1288   1.742   1.862   7.722
  292W        W 1289   0.114   5.180   2.143
  293W        W 1290   6.784   5.617   3.362
  294W        W 1291   2.731   4.151   6.901
  295W        W 1292   0.792   5.281   1.646
  296W        W 1293   0.422   5.714   0.978
  297W        W 1294   4.647   7.242   4.709
  298W        W 1295   7.841   4.210   2.193
  299W        W 1296   4.992   0.675   6.877
  300W        W 1297   2.805   1.992   3.466
  301W        W 1298   6.557   0.721   1.160
  302W        W 1299   0.535   4.424   3.478
  303W        W 1300   1.979   2.104   6.411
  304W        W 1301   3.150   3.798   1.634
  305W        W 1302   4.588   6.991   0.788
  306W        W 1303   4.848   2.907   0.667
  307W        W 1304   6.939   4.095   0.989
  308W        W 1305   2.481   2.362   6.005
  309W        W 1306   6.224   0.691   6.822
  310W        W 1307   0.632   3.857   7.284
  311W        W 1308   1.758   0.699   6.406
  312W        W 1309   0.524   7.235   5.057
  313W        W 1310   6.416   6.936   7.574
  314W        W 1311   7.141   6.937   4.678
  315W        W 1312   4.635   4.146   6.694
  316W        W 1313   2.712   4.367   2.746
  317W        W 1314   5.425   3.722   2.390
  318W        W 1315   6.697   4.696   3.271
  319W        W 1316   5.016   5.636   1.548
  320W        W 1317   1.617   1.242   2.597
  321W        W 1318   2.148   5.449   2.572
  322W        W 1319   4.110   0.556   3.277
  323W        W 1320   7.241   7.263   5.065
  324W        W 1321   2.191   7.073   3.340
  325W        W 1322   6.899   1.528   7.660
  326W        W 1323   0.805   4.184   0.003
  327W        W 1324   5.704   5.121   3.873
  328W        W 1325   0.520   2.210   6.938
  329W        W 1326   2.932   0.801   0.370
  330W        W 1327   7.000   5.390   5.643
  331W        W 1328   2.837   5.883   7.389
  332W        W 1329   7.173   3.649   0.718
  333W        W 1330   4.889   1.207   6.940
  334W        W 1331   6.705   3.832   0.546
  335W        W 1332   6.985   6.398   1.029
  336W        W 1333   1.004   5.143   2.218
  337W        W 1334   5.003   2.040   3.247
  338W        W 1335   3.324   5.958   2.361
  339W        W 1336   0.997   2.101   5.539
  340W        W 1337   1.283   4.261   2.374
  341W        W 1338   2.328   1.500   4.662
  342W        W 1339   6.342   1.268   6.690
  343W        W 1340   3.382   1.587   2.877
  344W        W 1341   7.406   4.704   5.392
  345W        W 1342   6.076   0.833   5.340
  346W        W 1343   2.768   3.633   7.114
  347W        W 1344   6.681   7.391   7.347
  348W        W 1345   5.999   6.606   7.491
  349W        W 1346   0.098   2.832   0.606
  350W        W 1347   2.497   5.124   1.054
  351W        W 1348   5.570   2.933   1.837
  352W        W 1349   4.981   5.828   7.675
  353W        W 1350   0.994   4.818   1.317
  354W        W 1351   4.481   7.411   7.134
  355W        W 1352   2.646   5.930   6.748
  356W        W 1353   5.963   5.419   1.042
  357W        W 1354   6.156   3.098   3.705
  358W        W 1355   4.818   5.202   6.966
  359W        W 1356   5.537   3.717   0.458
  360W        W 1357   4.323   2.836   0.552
  361W        W 1358   0.886   5.340   6.281
  362W        W 1359   4.573   1.429   2.257
  363W        W 1360   7.326   2.967   4.964
  364W        W 1361   4.214   5.143   5.601
  365W        W 1362   5.152   1.309   0.457
  366W        W 1363   4.337   3.721   2.079
  367W        W 1364   2.805   0.133   5.663
  368W        W 1365   6.462   2.244   2.499
  369W        W 1366   2.413   5.702   5.113
  370W        W 1367   2.356   4.649   0.183
  371W        W 1368   2.193   3.020   0.659
  372W        W 1369   3.073   3.541   4.860
  373W        W 1370   6.039   6.093   7.368
  374W        W 1371   5.332   1.206   5.178
  375W        W 1372   5.119   3.721   2.772
  376W        W 1373   4.362   4.703   3.421
  377W        W 1374   6.397   4.930   5.059
  378W        W 1375   4.367   0.630   6.638
  379W        W 1376   0.573   6.303   0.535
  380W        W 1377   1.921   5.198   1.019
  381W        W 1378   2.253   4.285   2.069
  382W        W 1379   0.523   0.084   2.524
  383W        W 1380   5.668   7.368   6.679
  384W        W 1381   0.892   2.859   2.310
  385W        W 1382   1.603   4.785   3.774
  386W        W 1383   7.206   6.744   0.661
  387W        W 1384   6.934   1.523   1.598
  388W        W 1385   3.423   1.148   3.498
  389W        W 1386   0.241   3.307   1.316
  390W        W 1387   0.825   0.474   5.265
  391W        W 1388   5.192   6.883   7.365
  392W        W 1389   5.184   4.770   1.939
  393W        W 1390   1.362   4.615   3.381
  394W        W 1391   5.576   7.464   1.775
  395W        W 1392   1.752   2.802   3.190
  396W        W 1393   2.681   4.176   7.386
  397W        W 1394   0.707   7.542   3.167
  398W        W 1395   3.601   2.142   5.778
  399W        W 1396   0.563   6.180   0.034
  400W        W 1397   3.021   6.917   3.273
  401W        W 1398   2.204   3.416   0.101
  402W        W 1399   7.823   1.835   5.082
  403W        W 1400   6.666   3.551   7.171
  404W        W 1401   3.953   1.633   4.995
  405W        W 1402   6.228   2.115   7.354
  406W        W 1403   0.166   5.804   4.064
  407W        W 1404   3.541   1.808   0.365
  408W        W 1405   6.492   5.083   5.554
  409W        W 1406   0.225   6.259   7.246
  410W        W 1407   0.928   1.731   3.962
  411W        W 1408   7.648   1.659   2.228
  412W        W 1409   2.513   1.885   7.289
  413W        W 1410   2.496   1.095   3.080
  414W        W 1411   4.477   3.244   7.145
  415W        W 1412   5.180   3.234   1.965
  416W        W 1413   3.374   6.613   3.132
  417W        W 1414   7.344   7.811   6.781
  418W        W 1415   7.213   1.344   6.940
  419W        W 1416   0.737   2.109   1.248
  420W        W 1417   6.718   4.841   6.852
  421W        W 1418   4.272   7.015   3.315
  422W        W 1419   1.687   4.864   5.992
  423W        W 1420   5.991   0.370   6.393
  424W        W 1421   5.310   2.779   5.362
  425W        W 1422   6.254   6.507   4.976
  426W        W 1423   2.568   3.468   6.353
  427W        W 1424   7.669   4.637   0.673
  428W        W 1425   6.150   4.390   4.087
  429W        W 1426   4.450   6.418   4.240
  430W        W 1427   4.368   6.712   2.046
  431W        W 1428   6.680   1.515   3.000
  432W        W 1429   0.909   0.784   7.552
  433W        W 1430   1.139   0.905   1.385
  434W        W 1431   3.135   4.586   7.784
  435W        W 1432   5.608   4.952   0.798
  436W        W 1433   3.147   0.050   4.128
  437W        W 1434   2.707   0.257   1.550
  438W        W 1435   7.276   2.491   0.280
  439W        W 1436   1.401   0.343   7.024
  440W        W 1437   5.050   7.122   0.900
  441W        W 1438   1.652   5.783   5.755
  442W        W 1439   3.212   4.240   6.956
  443W        W 1440   6.014   3.418   5.597
  444W        W 1441   5.090   3.496   3.901
  445W        W 1442   2.204   1.607   1.031
  446W        W 1443   5.933   7.313   7.178
  447W        W 1444   7.671   3.454   3.286
  448W        W 1445   0.360   0.848   7.618
  449W        W 1446   3.274   1.647   2.093
  450W        W 1447   6.914   3.731   3.693
  451W        W 1448   6.665   6.398   5.403
  452W        W 1449   7.928   0.867   6.951
  453W        W 1450   4.297   1.466   3.131
  454W        W 1451   6.904   5.757   2.450
  455W        W 1452   0.487   6.888   0.434
  456W        W 1453   0.201   7.539   6.349
  457W        W 1454   1.409   7.471   2.213
  458W        W 1455   1.523   3.008   5.442
  459W        W 1456   4.673   2.041   7.892
  460W        W 1457   2.859   1.881   4.174
  461W        W 1458   0.198   1.316   1.688
  462W        W 1459   6.652   7.714   3.202
  463W        W 1460   2.427   3.180   2.033
  464W        W 1461   7.092   2.642   5.770
  465W        W 1462   2.646   2.891   3.764
  466W        W 1463   2.531   3.557   4.853
  467W        W 1464   6.769   2.803   5.426
  468W        W 1465   1.299   3.182   0.545
  469W        W 1466   1.273   1.200   2.197
  470W        W 1467   7.431   1.580   4.839
  471W        W 1468   0.548   4.539   4.546
  472W        W 1469   0.391   3.199   3.101
  473W        W 1470   4.249   7.158   6.207
  474W        W 1471   3.950   2.589   7.550
  475W        W 1472   7.042   2.932   0.499
  476W        W 1473   1.247   5.733   2.433
  477W        W 1474   4.685   3.375   1.712
  478W        W 1475   2.995   7.596   5.450
  479W        W 1476   4.314   4.547   4.889
  480W        W 1477   6.508   7.541   1.735
  481W        W 1478   4.688   3.956   2.447
  482W        W 1479   6.934   7.511   5.920
  483W        W 1480   5.246   2.577   1.201
  484W        W 1481   2.135   5.526   1.287
  485W        W 1482   0.639   4.149   1.266
  486W        W 1483   7.077   6.869   0.119
  487W        W 1484   6.566   3.867   3.310
  488W        W 1485   2.219   2.691   5.617
  489W        W 1486   2.555   5.326   7.457
  490W        W 1487   2.006   2.279   5.823
  491W        W 1488   5.703   3.147   5.174
  492W        W 1489   5.744   1.778   2.600
  493W        W 1490   6.534   2.133   3.736
  494W        W 1491   4.633   0.642   4.197
  495W        W 1492   3.496   3.235   4.749
  496W        W 1493   2.983   1.256   3.038
  497W        W 1494   0.100   5.858   0.041
  498W        W 1495   5.120   6.472   2.237
  499W        W 1496   7.425   1.891   3.543
  500W        W 1497   3.346   3.366   2.062
  501W        W 1498   2.905   0.493   5.326
  502W        W 1499   1.813   1.775   4.665
  503W        W 1500   1.215   4.687   0.844
  504W        W 1501   3.028   7.407   0.527
  505W        W 1502   7.582   0.005   3.042
  506W        W 1503   0.201   3.645   6.965
  507W        W 1504   5.349   4.628   4.057
  508W        W 1505   1.262   3.033   5.054
  509W        W 1506   7.222   7.579   7.508
  510W        W 1507   7.792   6.749   0.286
  511W        W 1508   5.982   5.966   5.055
  512W        W 1509   0.497   0.157   4.251
  513W        W 1510   6.420   7.919   0.320
  514W        W 1511   5.940   6.054   0.239
  515W        W 1512   4.342   2.977   1.604
  516W        W 1513   4.653   2.617   1.232
  517W        W 1514   7.318   0.141   6.262
  518W        W 1515   6.209   0.931   1.592
  519W        W 1516   0.322   3.167   4.880
  520W        W 1517   6.479   5.093   4.224
  521W        W 1518   4.184   0.803   1.556
  522W        W 1519   5.660   4.132   7.602
  523W        W 1520   1.283   4.695   6.268
  524W        W 1521   4.110   1.383   5.752
  525W        W 1522   6.839   5.566   1.290
  526W        W 1523   4.773   7.483   0.258
  527W        W 1524   1.712   6.500   6.804
  528W        W 1525   7.238   4.283   6.320
  529W        W 1526   7.635   5.228   2.470
  530W        W 1527   0.324   3.610   2.813
  531W        W 1528   1.908   6.078   7.028
  532W        W 1529   0.717   3.486   0.585
  533W        W 1530   3.187   0.885   5.582
  534W        W 1531   5.502   3.440   1.015
  535W        W 1532   0.033   4.036   6.689
  536W        W 1533   3.401   7.094   6.261
  537W        W 1534   7.723   6.265   7.387
  538W        W 1535   5.805   4.808   1.212
  539W        W 1536   6.441   5.309   7.423
  540W        W 1537   5.144   5.357   7.685
  541W        W 1538   7.520   2.191   7.253
  542W        W 1539   0.035   2.034   2.958
  543W        W 1540   3.375   4.107   0.903
  544W        W 1541   0.318   4.358   1.668
  545W        W 1542   0.425   4.345   5.912
  546W        W 1543   1.437   0.553   6.083
  547W        W 1544   2.542   1.777   2.588
  548W        W 1545   7.378   5.867   1.885
  549W        W 1546   5.808   0.551   0.559
  550W        W 1547   7.877   2.039   7.607
  551W        W 1548   5.204   3.543   1.426
  552W        W 1549   2.582   7.435   4.585
  553W        W 1550   1.677   2.861   5.916
  554W        W 1551   2.080   0.539   4.640
  555W        W 1552   4.071   2.436   0.616
  556W        W 1553   5.158   5.228   6.585
  557W        W 1554   0.143   0.560   4.410
  558W        W 1555   4.606   5.967   5.119
  559W        W 1556   2.536   0.558   5.816
  560W        W 1557   7.413   4.681   5.948
  561W        W 1558   7.991   5.633   6.639
  562W        W 1559   3.832   7.376   0.280
  563W        W 1560   0.286   5.890   4.577
  564W        W 1561   2.289   0.991   6.095
  565W        W 1562   2.265   7.063   5.248
  566W        W 1563   2.160   2.927   2.892
  567W        W 1564   1.774   5.224   7.423
  568W        W 1565   4.399   0.978   5.528
  569W        W 1566   4.993   5.267   2.821
  570W        W 1567   7.259   2.940   1.332
  571W        W 1568   2.877   6.251   5.587
  572W        W 1569   1.227   1.237   0.955
  573W        W 1570   1.792   4.490   5.249
  574W        W 1571   3.396   7.434   1.537
  575W        W 1572   4.232   3.931   7.043
  576W        W 1573   1.236   7.565   4.667
  577W        W 1574   3.495   4.730   6.042
  578W        W 1575   5.740   1.246   1.262
  579W        W 1576   3.007   1.081   6.393
  580W        W 1577   6.796   4.395   4.888
  581W        W 1578   5.221   1.061   6.166
  582W        W 1579   4.930   6.797   1.256
  583W        W 1580   2.289   3.106   4.016
  584W        W 1581   5.397   7.156   7.021
  585W        W 1582   1.186   5.085   5.902
  586W        W 1583   1.348   2.195   4.747
  587W        W 1584   7.176   0.904   7.736
  588W        W 1585   2.805   4.665   6.760
  589W        W 1586   6.100   1.214   7.252
  590W        W 1587   6.460   0.201   5.175
  591W        W 1588   6.234   3.081   6.213
  592W        W 1589   6.922   4.502   4.361
  593W        W 1590   2.383   7.524   6.951
  594W        W 1591   2.800   6.112   3.806
  595W        W 1592   3.158   2.409   3.475
  596W        W 1593   6.503   3.116   0.416
  597W        W 1594   0.424   7.201   6.711
  598W        W 1595   0.152   2.032   6.016
  599W        W 1596   7.587   4.028   2.743
  600W        W 1597   2.291   0.858   7.014
  601W        W 1598   5.202   0.039   1.816
  602W        W 1599   3.216   2.553   6.908
  603W        W 1600   4.125   0.137   4.980
  604W        W 1601   0.603   5.519   7.381
  605W        W 1602   6.426   3.661   7.654
  606W        W 1603   4.900   5.178   4.854
  607W        W 1604   1.500   7.354   5.865
  608W        W 1605   3.738   3.949   6.893
  609W        W 1606   6.105   3.523   5.085
  610W        W 1607   1.396   5.128   1.171
  611W        W 1608   5.814   6.463   4.070
  612W        W 1609   6.426   6.802   4.629
  613W        W 1610   7.084   0.246   7.757
  614W        W 1611   4.761   4.458   7.624
  615W        W 1612   5.476   5.506   3.062
  616W        W 1613   2.863   3.651   4.411
  617W        W 1614   3.124   4.803   5.673
  618W        W 1615   7.743   2.535   6.986
  619W        W 1616   3.772   5.184   5.908
  620W        W 1617   7.319   0.592   3.824
  621W        W 1618   0.942   3.312   3.162
  622W        W 1619   0.700   2.625   7.709
  623W        W 1620   7.696   4.389   5.619
  624W        W 1621   3.732   1.920   4.338
  625W        W 1622   6.666   1.431   7.086
  626W        W 1623   4.791   5.033   4.367
  627W        W 1624   6.520   5.539   5.383
  628W        W 1625   3.165   0.879   0.806
  629W        W 1626   2.648   2.429   4.900
  630W        W 1627   4.099   7.265   7.501
  631W        W 1628   5.414   4.967   5.019
  632W        W 1629   5.643   4.973   1.712
  633W        W 1630   3.923   5.851   2.934
  634W        W 1631   1.047   0.730   0.842
  635W        W 1632   3.634   0.799   1.537
  636W        W 1633   3.739   6.172   4.685
  637W        W 1634   2.692   1.409   4.344
  638W        W 1635   7.646   0.601   5.030
  639W        W 1636   0.747   7.548   4.601
  640W        W 1637   7.994   6.359   3.127
  641W        W 1638   1.802   3.796   0.068
  642W        W 1639   4.654   7.471   0.948
  643W        W 1640   5.444   5.721   6.519
  644W        W 1641   0.677   1.078   1.695
  645W        W 1642   6.891   6.336   5.858
  646W        W 1643   1.614   5.297   3.790
  647W        W 1644   1.659   3.056   1.384
  648W        W 1645   1.016   3.415   6.237
  649W        W 1646   5.187   5.137   2.376
  650W        W 1647   4.676   2.608   2.394
  651W        W 1648   5.945   7.734   0.261
  652W        W 1649   0.843   5.491   6.891
  653W        W 1650   7.895   6.664   1.385
  654W        W 1651   1.597   5.021   4.554
  655W        W 1652   4.845   3.903   4.494
  656W        W 1653   3.044   4.869   6.206
  657W        W 1654   1.797   6.203   3.493
  658W        W 1655   7.135   0.546   6.432
  659W        W 1656   4.333   6.850   4.869
  660W        W 1657   2.900   5.411   5.076
  661W        W 1658   3.065   2.670   2.662
  662W        W 1659   3.117   0.315   2.395
  663W        W 1660   6.485   0.695   2.439
  664W        W 1661   5.315   1.012   2.156
  665W        W 1662   1.212   6.050   4.135
  666W        W 1663   4.418   4.685   2.333
  667W        W 1664   5.465   5.844   3.535
  668W        W 1665   3.117   3.245   0.875
  669W        W 1666   3.302   5.552   5.361
  670W        W 1667   3.398   6.302   2.719
  671W        W 1668   7.441   2.521   4.771
  672W        W 1669   5.560   3.464   4.792
  673W        W 1670   3.114   6.425   0.093
  674W        W 1671   4.183   0.432   5.722
  675W        W 1672   4.758   3.178   2.262
  676W        W 1673   1.587   1.163   3.531
  677W        W 1674   7.052   4.064   4.338
  678W        W 1675   0.063   3.334   1.877
  679W        W 1676   4.492   2.315   5.164
  680W        W 1677   6.124   5.431   3.999
  681W        W 1678   2.929   3.730   6.663
  682W        W 1679   6.545   0.630   1.750
  683W        W 1680   4.720   2.586   0.151
  684W        W 1681   3.666   1.042   2.376
  685W        W 1682   6.602   4.315   3.583
  686W        W 1683   5.543   6.725   3.066
  687W        W 1684   4.428   4.893   7.861
  688W        W 1685   0.894   5.629   7.825
  689W        W 1686   1.349   4.504   5.750
  690W        W 1687   7.084   3.028   2.700
  691W        W 1688   5.021   6.502   4.099
  692W        W 1689   5.809   4.553   3.736
  693W        W 1690   7.508   3.429   0.331
  694W        W 1691   7.863   0.510   3.663
  695W        W 1692   3.006   4.287   2.349
  696W        W 1693   7.125   2.817   3.551
  697W        W 1694   6.192   5.055   6.704
  698W        W 1695   0.096   5.650   2.097
  699W        W 1696   5.053   5.760   2.776
  700W        W 1697   4.905   1.783   2.274
  701W        W 1698   2.920   7.448   6.800
  702W        W 1699   0.045   5.409   0.230
  703W        W 1700   3.246   0.574   7.868
  704W        W 1701   6.209   6.210   5.412
  705W        W 1702   0.915   3.151   0.918
  706W        W 1703   3.496   1.107   2.959
  707W        W 1704   1.212   3.620   1.771
  708W        W 1705   1.071   5.493   0.947
  709W        W 1706   0.202   1.289   7.218
  710W        W 1707   6.261   0.329   0.226
  711W        W 1708   7.595   7.058   4.752
  712W        W 1709   5.221   7.081   1.783
  713W        W 1710   4.346   7.524   2.685
  714W        W 1711   2.680   2.372   6.812
  715W        W 1712   5.840   5.692   4.668
  716W        W 1713   2.766   1.303   5.679
  717W        W 1714   6.359   6.594   1.848
  718W        W 1715   4.265   1.979   4.152
  719W        W 1716   0.352   0.725   0.326
  720W        W 1717   5.441   5.763   1.841
  721W        W 1718   2.954   1.700   1.674
  722W        W 1719   7.621   3.237   5.727
  723W        W 1720   0.649   2.401   2.353
  724W        W 1721   5.750   2.488   7.144
  725W        W 1722   3.599   7.066   1.749
  726W        W 1723   6.342   3.027   5.733
  727W        W 1724   4.090   4.384   7.175
  728W        W 1725   5.545   4.090   2.682
  729W        W 1726   2.264   5.237   2.081
  730W        W 1727   5.913   7.713   4.093
  731W        W 1728   3.245   6.402   1.144
  732W        W 1729   3.932   3.889   7.439
  733W        W 1730   5.110   0.302   7.294
  734W        W 1731   4.869   1.991   7.449
  735W        W 1732   0.812   1.401   2.087
  736W        W 1733   3.202   6.231   7.403
  737W        W 1734   1.524   6.920   4.096
  738W        W 1735   1.421   1.412   3.028
  739W        W 1736   7.420   1.326   1.427
  740W        W 1737   2.017   4.018   0.446
  741W        W 1738   2.558   2.666   6.394
  742W        W 1739   4.214   0.131   6.769
  743W        W 1740   7.651   2.160   5.691
  744W        W 1741   7.147   2.379   4.286
  745W        W 1742   3.022   1.017   1.382
  746W        W 1743   6.438   3.904   5.094
  747W        W 1744   2.562   1.742   0.562
  748W        W 1745   5.918   1.346   4.481
  749W        W 1746   1.022   7.298   5.068
  750W        W 1747   1.637   3.652   1.536
  751W        W 1748   4.700   5.783   3.570
  752W        W 1749   4.056   4.719   5.852
  753W        W 1750   5.083   0.796   4.373
  754W        W 1751   3.569   7.764   1.852
  755W        W 1752   1.888   2.036   1.124
  756W        W 1753   3.141   5.918   4.320
  757W        W 1754   1.164   5.531   1.461
  758W        W 1755   1.054   6.590   4.219
  759W        W 1756   5.900   4.482   7.822
  760W        W 1757   2.393   6.021   7.142
  761W        W 1758   3.662   1.541   5.473
  762W        W 1759   3.922   4.919   2.477
  763W        W 1760   3.203   4.382   3.852
  764W        W 1761   3.175   1.203   2.536
  765W        W 1762   0.138   4.991   3.804
  766W        W 1763   7.080   0.317   2.566
  767W        W 1764   7.047   0.066   2.996
  768W        W 1765   1.420   6.824   7.049
  769W        W 1766   2.137   6.064   3.184
  770W        W 1767   5.599   1.795   1.442
  771W        W 1768   1.079   1.219   7.341
  772W        W 1769   6.324   7.800   5.275
  773W        W 1770   3.896   0.582   2.569
  774W        W 1771   7.838   7.938   6.760
  775W        W 1772   5.724   3.797   7.221
  776W        W 1773   4.748   0.991   5.906
  777W        W 1774   1.694   6.996   6.608
  778W        W 1775   6.550   6.219   6.919
  779W        W 1776   4.141   2.484   1.491
  780W        W 1777   3.890   4.464   5.227
  781W        W 1778   7.712   6.556   5.491
  782W        W 1779   6.681   0.257   1.311
  783W        W 1780   6.360   0.096   6.675
  784W        W 1781   3.641   2.035   4.803
  785W        W 1782   7.127   1.857   4.383
  786W        W 1783   1.201   2.145   0.449
  787W        W 1784   3.286   6.929   2.196
  788W        W 1785   7.891   6.294   0.069
  789W        W 1786   1.462   2.385   3.446
  790W        W 1787   6.538   2.591   5.035
  791W        W 1788   6.993   6.038   1.494
  792W        W 1789   6.291   2.003   5.622
  793W        W 1790   6.843   6.613   4.968
  794W        W 1791   1.628   5.686   7.034
  795W        W 1792   0.372   5.154   0.568
  796W        W 1793   0.192   7.138   1.280
  797W        W 1794   3.695   6.274   7.428
  798W        W 1795   1.536   1.917   5.082
  799W        W 1796   7.188   6.624   5.549
  800W        W 1797   3.745   5.473   2.203
  801W        W 1798   2.750   7.132   5.512
  802W        W 1799   1.472   4.161   3.223
  803W        W 1800   3.574   6.717   1.410
  804W        W 1801   4.042   6.809   2.948
  805W        W 1802   2.298   5.809   2.189
  806W        W 1803   1.396   7.287   3.533
  807W        W 1804   6.593   6.010   1.145
  808W        W 1805   3.303   7.064   4.739
  809W        W 1806   5.584   4.019   1.010
  810W        W 1807   7.298   7.951   2.552
  811W        W 1808   7.551   2.447   6.509
  812W        W 1809   4.137   1.128   2.129
  813W        W 1810   3.710   2.616   7.064
  814W        W 1811   2.771   3.120   1.212
  815W        W 1812   7.193   3.845   6.617
  816W        W 1813   3.496   1.347   0.700
  817W        W 1814   5.959   1.680   4.854
  818W        W 1815   4.010   1.473   0.865
  819W        W 1816   3.907   1.399   6.185
  820W        W 1817   6.760   3.430   2.768
  821W        W 1818   2.220   5.611   5.922
  822W        W 1819   5.565   4.482   1.544
  823W        W 1820   0.017   2.878   5.815
  824W        W 1821   5.654   3.685   5.857
  825W        W 1822   2.782   0.548   7.621
  826W        W 1823   0.824   2.973   4.029
  827W        W 1824   2.635   3.243   6.778
  828W        W 1825   7.209   0.112   5.633
  829W        W 1826   5.711   6.140   6.348
  830W        W 1827   6.674   2.198   4.234
  831W        W 1828   1.766   4.509   2.203
  832W        W 1829   1.742   2.104   3.805
  833W        W 1830   6.076   2.859   0.746
  834W        W 1831   6.840   2.037   1.491
  835W        W 1832   4.746   7.648   6.686
  836W        W 1833   6.275   7.544   1.196
  837W        W 1834   1.311   2.704   1.901
  838W        W 1835   5.397   2.054   0.944
  839W        W 1836   6.285   2.643   0.354
  840W        W 1837   3.694   0.903   0.452
  841W        W 1838   1.893   0.839   0.304
  842W        W 1839   5.081   3.448   5.746
  843W        W 1840   7.060   2.886   2.249
  844W        W 1841   7.262   3.375   4.721
  845W        W 1842   4.021   3.014   6.903
  846W        W 1843   1.218   0.494   3.184
  847W        W 1844   0.889   0.470   6.247
  848W        W 1845   1.938   1.209   7.165
  849W        W 1846   0.735   2.826   3.144
  850W        W 1847   1.304   4.926   7.471
  851W        W 1848   4.825   4.081   6.240
  852W        W 1849   6.728   3.740   2.280
  853W        W 1850   5.114   4.551   0.243
  854W        W 1851   3.822   4.518   1.635
  855W        W 1852   4.001   1.172   5.234
  856W        W 1853   0.496   5.291   6.603
  857W        W 1854   3.944   7.955   0.814
  858W        W 1855   0.546   3.519   6.411
  859W        W 1856   2.529   7.416   0.197
  860W        W 1857   0.703   1.015   5.857
  861W        W 1858   7.105   6.582   2.538
  862W        W 1859   5.293   4.796   6.354
  863W        W 1860   0.915   3.159   7.669
  864W        W 1861   1.332   0.205   1.773
  865W        W 1862   5.819   7.572   7.811
  866W        W 1863   4.667   0.544   5.546
  867W        W 1864   5.235   5.420   5.229
  868W        W 1865   3.351   4.753   2.063
  869W        W 1866   5.804   2.667   1.240
  870W        W 1867   4.362   1.525   5.319
  871W        W 1868   7.313   0.298   1.797
  872W        W 1869   0.001   1.151   2.642
  873W        W 1870   2.723   7.498   7.370
  874W        W 1871   0.068   3.400   6.557
  875W        W 1872   2.906   7.091   6.429
  876W        W 1873   3.296   3.517   5.610
  877W        W 1874   5.860   4.474   0.835
  878W        W 1875   3.140   5.477   4.628
  879W        W 1876   6.893   6.693   6.422
  880W        W 1877   4.391   2.575   3.360
  881W        W 1878   0.478   0.095   5.483
  882W        W 1879   3.712   2.699   1.305
  883W        W 1880   1.796   1.134   5.320
  884W        W 1881   4.092   2.239   3.547
  885W        W 1882   6.536   7.195   0.908
  886W        W 1883   5.036   3.241   1.043
  887W        W 1884   7.846   6.979   6.494
  888W        W 1885   4.943   4.920   7.811
  889W        W 1886   4.566   3.157   5.852
  890W        W 1887   2.943   6.998   3.799
  891W        W 1888   6.608   1.653   0.232
  892W        W 1889   1.326   5.599   6.604
  893W        W 1890   0.515   7.604   2.725
  894W        W 1891   6.428   6.822   5.303
  895W        W 1892   5.360   4.774   6.942
  896W        W 1893   3.958   6.118   6.932
  897W        W 1894   4.563   5.871   1.652
  898W        W 1895   0.128   4.512   3.746
  899W        W 1896   0.526   5.648   5.930
  900W        W 1897   6.709   2.108   2.927
  901W        W 1898   1.515   2.327   6.240
  902W        W 1899   4.465   5.572   7.382
  903W        W 1900   6.941   6.530   3.030
  904W        W 1901   5.805   4.177   6.037
  905W        W 1902   7.004   1.155   1.234
  906W        W 1903   0.388   3.811   5.758
  907W        W 1904   4.005   3.468   7.190
  908W        W 1905   6.670   0.107   7.514
  909W        W 1906   0.271   4.677   5.534
  910W        W 1907   4.491   2.303   7.446
  911W        W 1908   4.296   4.753   2.859
  912W        W 1909   2.726   5.544   0.325
  913W        W 1910   3.337   2.878   3.083
  914W        W 1911   3.582   0.331   2.203
  915W        W 1912   6.898   1.536   4.724
  916W        W 1913   2.483   1.644   3.901
  917W        W 1914   5.851   5.987   3.251
  918W        W 1915   4.864   5.840   1.046
  919W        W 1916   6.844   3.175   3.995
  920W        W 1917   0.518   3.301   1.767
  921W        W 1918   5.552   1.919   4.293
  922W        W 1919   6.644   6.410   3.846
  923W        W 1920   5.767   1.207   5.472
  924W        W 1921   7.590   5.210   7.218
  925W        W 1922   3.918   3.500   2.945
  926W        W 1923   7.759   4.400   7.436
  927W        W 1924   1.164   0.380   1.302
  928W        W 1925   1.428   5.400   5.470
  929W        W 1926   7.012   3.763   1.423
  930W        W 1927   2.536   2.445   3.485
  931W        W 1928   1.085   2.146   3.233
  932W        W 1929   6.972   6.161   3.542
  933W        W 1930   0.454   3.077   0.898
  934W        W 1931   4.030   5.915   7.447
  935W        W 1932   5.179   7.568   1.086
  936W        W 1933   3.198   1.616   3.374
  937W        W 1934   7.319   5.022   0.938
  938W        W 1935   3.070   4.476   4.871
  939W        W 1936   3.013   2.894   6.527
  940W        W 1937   0.221   2.667   1.105
  941W        W 1938   5.527   2.920   0.879
  942W        W 1939   0.082   5.279   5.631
  943W        W 1940   6.018   0.832   1.040
  944W        W 1941   3.547   2.545   2.758
  945W        W 1942   1.077   0.354   4.798
  946W        W 1943   5.689   2.920   2.350
  947W        W 1944   6.357   6.420   4.224
  948W        W 1945   2.504   2.739   0.926
  949W        W 1946   2.973   3.959   2.779
  950W        W 1947   5.555   0.154   7.125
  951W        W 1948   0.784   5.443   0.582
  952W        W 1949   4.456   7.403   5.796
  953W        W 1950   3.083   2.675   4.172
  954W        W 1951   4.675   2.752   1.870
  955W        W 1952   4.158   4.184   3.586
  956W        W 1953   2.269   6.175   1.319
  957W        W 1954   0.625   5.859   1.817
  958W        W 1955   4.490   2.764   5.433
  959W        W 1956   1.819   5.613   0.564
  960W        W 1957   2.220   4.757   6.135
  961W        W 1958   4.591   4.252   3.345
  962W        W 1959   4.236   3.011   7.500
  963W        W 1960   1.180   6.272   4.569
  964W        W 1961   6.335   6.960   4.023
  965W        W 1962   3.501   0.218   0.224
  966W        W 1963   3.316   5.053   5.264
  967W        W 1964   7.113   1.939   1.921
  968W        W 1965   7.415   4.354   2.392
  969W        W 1966   2.056   1.011   2.319
  970W        W 1967   6.751   7.606   6.813
  971W        W 1968   3.062   5.826   2.898
  972W        W 1969   4.902   7.280   1.376
  973W        W 1970   4.602   6.999   0.081
  974W        W 1971   6.280   6.292   7.885
  975W        W 1972   0.941   6.014   0.318
  976W        W 1973   0.843   4.714   3.298
  977W        W 1974   1.900   0.251   4.031
  978W        W 1975   5.108   6.126   4.576
  979W        W 1976   5.227   4.048   0.225
  980W        W 1977   3.530   7.966   7.123
  981W        W 1978   5.449   3.091   3.041
  982W        W 1979   6.268   4.709   2.901
  983W        W 1980   5.641   5.643   3.982
  984W        W 1981   7.776   5.874   7.021
  985W        W 1982   6.335   5.614   1.370
  986W        W 1983   0.195   1.231   0.158
  987W        W 1984   0.354   7.844   6.757
  988W        W 1985   7.146   0.763   5.058
  989W        W 1986   7.476   2.066   4.116
  990W        W 1987   3.928   6.100   6.005
  991W        W 1988   2.580   4.977   6.336
  992W        W 1989   4.949   4.583   3.597
  993W        W 1990   1.693   3.645   5.545
  994W        W 1991   1.664   3.058   4.620
  995W        W 1992   2.044   4.616   6.907
  996W        W 1993   4.830   4.724   1.087
  997W        W 1994   3.505   2.500   0.225
  998W        W 1995   7.628   3.244   1.543
  999W        W 1996   5.518   2.090   3.465
 1000W        W 1997   2.215   3.016   6.558
 1001W        W 1998   6.436   0.366   3.845
 1002W        W 1999   7.726   2.999   7.922
 1003W        W 2000   1.697   7.012   2.333
 1004W        W 2001   2.470   5.045   6.798
 1005W        W 2002   2.699   4.150   4.825
 1006W        W 2003   0.897   3.350   1.464
 1007W        W 2004   3.471   5.128   2.408
 1008W        W 2005   3.724   1.509   3.200
 1009W        W 2006   1.622   3.374   2.600
 1010W        W 2007   4.354   7.543   3.313
 1011W        W 2008   7.034   5.787   3.834
 1012W        W 2009   3.507   3.142   5.294
 1013W        W 2010   3.004   0.352   0.136
 1014W        W 2011   5.241   3.473   4.395
 1015W        W 2012   4.364   0.457   7.512
 1016W        W 2013   0.452   4.205   7.641
 1017W        W 2014   4.476   0.410   1.428
 1018W        W 2015   5.465   5.845   0.242
 1019W        W 2016   3.378   4.676   0.238
 1020W        W 2017   3.341   5.214   1.690
 1021W        W 2018   4.562   1.263   0.791
 1022W        W 2019   1.465   6.290   7.881
 1023W        W 2020   2.826   6.337   7.059
 1024W        W 2021   4.891   6.400   5.183
 1025W        W 2022   1.403   1.589   1.921
 1026W        W 2023   1.342   1.666   2.598
 1027W        W 2024   5.338   1.827   0.456
 1028W        W 2025   2.874   4.892   1.459
 1029W        W 2026   6.239   7.300   5.351
 1030W        W 2027   4.969   4.629   2.548
 1031W        W 2028   0.777   3.832   3.508
 1032W        W 2029   5.149   6.670   6.909
 1033W        W 2030   6.085   1.512   6.300
 1034W        W 2031   7.465   2.577   3.265
 1035W        W 2032   6.087   1.336   3.709
 1036W        W 2033   1.638   2.544   6.727
 1037W        W 2034   6.067   3.769   3.175
 1038W        W 2035   0.482   1.379   5.674
 1039W        W 2036   0.242   4.853   3.310
 1040W        W 2037   5.309   6.489   1.442
 1041W        W 2038   0.786   3.743   2.892
 1042W        W 2039   4.999   6.683   5.574
 1043W        W 2040   1.681   4.256   4.748
 1044W        W 2041   0.938   1.418   6.009
 1045W        W 2042   5.440   4.797   3.544
 1046W        W 2043   4.939   7.991   5.248
 1047W        W 2044   1.130   4.601   0.022
 1048W        W 2045   4.667   0.450   5.005
 1049W        W 2046   1.912   7.623   0.138
 1050W        W 2047   5.143   1.691   1.760
 1051W        W 2048   6.608   3.807   1.743
 1052W        W 2049   3.360   2.001   4.042
 1053W        W 2050   1.248   6.889   3.215
 1054W        W 2051   0.386   0.180   0.625
 1055W        W 2052   4.866   2.164   0.978
 1056W        W 2053   7.818   0.030   0.051
 1057W        W 2054   1.154   2.878   1.361
 1058W        W 2055   1.303   5.078   1.776
 1059W        W 2056   0.217   5.175   1.127
 1060W        W 2057   2.460   5.193   5.213
 1061W        W 2058   3.241   7.779   2.356
 1062W        W 2059   5.998   1.762   4.130
 1063W        W 2060   1.353   3.223   6.577
 1064W        W 2061   6.247   1.885   2.814
 1065W        W 2062   0.016   0.103   4.674
 1066W        W 2063   0.791   3.735   5.499
 1067W        W 2064   1.278   1.701   4.585
 1068W        W 2065   6.061   1.630   1.049
 1069W        W 2066   4.359   1.204   1.277
 1070W        W 2067   7.505   0.577   6.032
 1071W        W 2068   2.201   1.277   5.682
 1072W        W 2069   4.863   6.071   2.328
 1073W        W 2070   0.304   6.595   0.094
 1074W        W 2071   7.267   0.286   3.432
 1075W        W 2072   6.712   4.690   7.639
 1076W        W 2073   1.447   1.939   2.961
 1077W        W 2074   3.201   5.503   0.365
 1078W        W 2075   3.084   1.142   1.986
 1079W        W 2076   5.634   6.317   5.254
 1080W        W 2077   0.985   5.964   3.333
 1081W        W 2078   6.265   4.431   5.015
 1082W        W 2079   6.228   7.698   3.540
 1083W        W 2080   3.817   0.298   5.391
 1084W        W 2081   2.476   0.913   7.524
 1085W        W 2082   6.121   3.427   7.186
 1086W        W 2083   4.966   3.303   3.037
 1087W        W 2084   7.453   2.320   5.309
 1088W        W 2085   7.640   7.552   7.172
 1089W        W 2086   2.261   0.455   0.278
 1090W        W 2087   0.618   6.358   1.648
 1091W        W 2088   5.950   2.835   4.406
 1092W        W 2089   3.496   0.941   7.629
 1093W        W 2090   3.541   0.154   2.723
 1094W        W 2091   3.276   2.798   1.962
 1095W        W 2092   6.605   4.633   3.981
 1096W        W 2093   3.938   4.747   0.571
 1097W        W 2094   3.676   6.414   3.541
 1098W        W 2095   0.629   1.559   1.554
 1099W        W 2096   5.639   1.258   2.512
 1100W        W 2097   6.580   2.519   7.484
 1101W        W 2098   3.073   6.453   2.278
 1102W        W 2099   1.672   7.002   0.107
 1103W        W 2100   4.136   5.789   0.177
 1104W        W 2101   6.582   2.142   0.206
 1105W        W 2102   3.323   6.757   7.436
 1106W        W 2103   7.066   7.436   4.566
 1107W        W 2104   7.386   2.328   6.003
 1108W        W 2105   4.897   3.388   6.199
 1109W        W 2106   3.152   1.405   6.034
 1110W        W 2107   4.086   7.244   4.600
 1111W        W 2108   4.753   6.501   4.682
 1112W        W 2109   7.787   1.222   1.973
 1113W        W 2110   6.495   5.484   0.012
 1114W        W 2111   0.973   2.798   0.005
 1115W        W 2112   2.719   3.061   6.067
 1116W        W 2113   0.311   2.970   6.510
 1117W        W 2114   3.989   1.950   5.393
 1118W        W 2115   4.207   2.560   7.067
 1119W        W 2116   3.163   6.994   1.347
 1120W        W 2117   3.157   2.765   4.711
 1121W        W 2118   7.860   4.910   5.399
 1122W        W 2119   7.415   4.168   0.704
 1123W        W 2120   6.256   1.267   4.194
 1124W        W 2121   3.739   5.514   1.710
 1125W        W 2122   3.727   2.511   2.244
 1126W        W 2123   4.923   1.444   5.399
 1127W        W 2124   2.640   2.948   4.716
 1128W        W 2125   3.330   4.647   6.497
 1129W        W 2126   2.232   2.089   3.938
 1130W        W 2127   5.287   2.289   7.423
 1131W        W 2128   7.015   5.663   5.231
 1132W        W 2129   3.494   5.968   3.092
 1133W        W 2130   7.078   6.166   5.351
 1134W        W 2131   0.562   6.696   4.224
 1135W        W 2132   7.264   2.924   4.477
 1136W        W 2133   5.446   0.715   3.238
 1137W        W 2134   1.736   7.025   0.934
 1138W        W 2135   4.487   5.108   6.605
 1139W        W 2136   6.668   2.283   5.422
 1140W        W 2137   7.317   2.931   5.472
 1141W        W 2138   3.832   3.164   3.826
 1142W        W 2139   1.718   5.164   5.019
 1143W        W 2140   5.900   4.294   2.348
 1144W        W 2141   4.167   7.871   5.845
 1145W        W 2142   0.744   0.647   3.507
 1146W        W 2143   3.500   4.993   3.530
 1147W        W 2144   1.456   6.088   6.783
 1148W        W 2145   0.721   5.777   4.064
 1149W        W 2146   2.224   4.029   1.619
 1150W        W 2147   6.049   4.942   5.816
 1151W        W 2148   4.093   7.270   4.077
 1152W        W 2149   4.486   1.512   3.592
 1153W        W 2150   6.821   2.684   4.519
 1154W        W 2151   7.591   1.988   3.057
 1155W        W 2152   0.176   4.104   4.233
 1156W        W 2153   4.662   3.662   5.389
 1157W        W 2154   3.102   2.998   5.602
 1158W        W 2155   2.564   0.491   4.434
 1159W        W 2156   6.150   4.255   5.563
 1160W        W 2157   0.834   4.074   5.082
 1161W        W 2158   0.487   1.568   6.136
 1162W        W 2159   1.649   2.257   0.717
 1163W        W 2160   3.816   3.033   2.810
 1164W        W 2161   7.100   3.206   5.790
 1165W        W 2162   7.677   5.164   1.867
 1166W        W 2163   0.980   6.467   3.292
 1167W        W 2164   3.674   6.573   5.610
 1168W        W 2165   6.041   4.914   7.650
 1169W        W 2166   4.399   2.224   1.137
 1170W        W 2167   1.079   0.800   4.328
 1171W        W 2168   6.991   5.747   0.853
 1172W        W 2169   3.953   0.469   0.623
 1173W        W 2170   7.739   5.277   1.321
 1174W        W 2171   5.560   2.026   4.787
 1175W        W 2172   5.736   6.995   6.161
 1176W        W 2173   4.503   2.133   5.680
 1177W        W 2174   0.339   7.377   1.948
 1178W        W 2175   0.921   6.228   2.177
 1179W        W 2176   6.086   5.191   1.483
 1180W        W 2177   4.388   0.124   0.498
 1181W        W 2178   6.891   5.013   7.314
 1182W        W 2179   4.201   3.828   2.580
 1183W        W 2180   6.918   4.515   6.020
 1184W        W 2181   6.321   3.066   5.216
 1185W        W 2182   7.212   6.156   2.290
 1186W        W 2183   4.420   4.149   5.220
 1187W        W 2184   6.741   2.980   6.628
 1188W        W 2185   2.993   6.432   0.665
 1189W        W 2186   1.153   2.669   0.473
 1190W        W 2187   6.464   2.630   6.372
 1191W        W 2188   1.910   7.212   0.497
 1192W        W 2189   2.532   6.671   0.820
 1193W        W 2190   4.139   7.036   1.675
 1194W        W 2191   3.777   5.041   3.983
 1195W        W 2192   1.666   2.182   2.557
 1196W        W 2193   2.492   6.273   2.169
 1197W        W 2194   2.663   7.517   0.802
 1198W        W 2195   6.420   2.814   4.139
 1199W        W 2196   2.111   3.553   1.486
 1200W        W 2197   0.056   0.427   2.832
 1201W        W 2198   1.117   7.647   6.069
 1202W        W 2199   6.219   5.873   6.812
 1203W        W 2200   2.025   3.961   7.673
 1204W        W 2201   5.243   3.528   3.408
 1205W        W 2202   3.781   0.367   1.725
 1206W        W 2203   4.343   4.692   5.384
 1207W        W 2204   7.508   0.166   2.258
 1208W        W 2205   5.340   6.059   2.541
 1209W        W 2206   4.344   3.901   3.061
 1210W        W 2207   2.514   3.844   0.708
 1211W        W 2208   6.884   0.578   7.417
 1212W        W 2209   2.943   0.783   2.344
 1213W        W 2210   4.425   1.954   7.083
 1214W        W 2211   3.688   2.512   3.309
 1215W        W 2212   0.232   6.549   0.771
 1216W        W 2213   0.591   5.175   3.517
 1217W        W 2214   4.496   2.126   2.183
 1218W        W 2215   4.290   5.304   1.647
 1219W        W 2216   5.587   2.360   1.548
 1220W        W 2217   3.663   0.579   3.519
 1221W        W 2218   6.351   1.034   2.079
 1222W        W 2219   4.602   2.448   0.681
 1223W        W 2220   0.176   3.893   3.716
 1224W        W 2221   6.373   3.359   3.339
 1225W        W 2222   4.649   1.885   4.478
 1226W        W 2223   6.861   1.993   2.479
 1227W        W 2224   6.455   5.133   2.675
 1228W        W 2225   4.876   1.732   6.991
 1229W        W 2226   0.850   0.708   2.890
 1230W        W 2227   0.172   5.419   6.260
 1231W        W 2228   1.607   3.627   7.575
 1232W        W 2229   4.993   6.619   1.777
 1233W        W 2230   0.447   3.259   0.140
 1234W        W 2231   6.302   6.449   0.468
 1235W        W 2232   2.023   4.775   4.566
 1236W        W 2233   3.927   1.219   1.525
 1237W        W 2234   1.936   7.458   1.801
 1238W        W 2235   2.191   5.884   0.891
 1239W        W 2236   2.946   3.010   7.081
 1240W        W 2237   0.403   0.677   2.529
 1241W        W 2238   3.607   4.399   5.713
 1242W        W 2239   3.650   1.181   5.817
 1243W        W 2240   6.839   0.103   0.252
 1244W        W 2241   3.229   2.330   2.286
 1245W        W 2242   1.304   2.260   7.257
 1246W        W 2243   0.355   6.905   2.535
 1247W        W 2244   1.998   4.181   3.126
 1248W        W 2245   6.060   5.321   2.393
 1249W        W 2246   3.362   7.821   7.687
 1250W        W 2247   3.696   3.430   6.748
 1251W        W 2248   6.034   3.740   0.950
 1252W        W 2249   3.728   0.913   6.345
 1253W        W 2250   3.315   4.899   2.817
 1254W        W 2251   5.217   4.981   5.881
 1255W        W 2252   0.594   0.090   6.022
 1256W        W 2253   5.230   5.305   1.880
 1257W        W 2254   3.032   1.755   2.519
 1258W        W 2255   4.184   5.626   5.296
 1259W        W 2256   2.294   6.490   1.731
 1260W        W 2257   5.000   2.260   2.551
 1261W        W 2258   5.754   4.647   7.351
 1262W        W 2259   3.596   2.501   0.732
 1263W        W 2260   0.936   4.322   6.089
 1264W        W 2261   0.833   7.622   6.778
 1265W        W 2262   1.014   0.208   4.188
 1266W        W 2263   0.862   6.538   0.251
 1267W        W 2264   5.894   7.172   3.957
 1268W        W 2265   1.124   3.015   2.735
 1269W        W 2266   0.300   4.453   6.463
 1270W        W 2267   3.539   4.136   4.956
 1271W        W 2268   1.384   3.156   1.782
 1272W        W 2269   3.578   1.992   7.916
 1273W        W 2270   0.285   5.537   3.614
 1274W        W 2271   0.325   0.641   1.620
 1275W        W 2272   4.457   7.728   5.363
 1276W        W 2273   5.461   4.541   2.447
 1277W        W 2274   3.356   7.307   0.143
 1278W        W 2275   4.165   0.077   3.431
 1279W        W 2276   0.764   5.254   4.025
 1280W        W 2277   7.025   4.993   6.147
 1281W        W 2278   2.686   1.844   5.857
 1282W        W 2279   4.635   5.394   4.002
 1283W        W 2280   4.323   6.866   3.803
 1284W        W 2281   6.482   3.851   2.716
 1285W        W 2282   5.027   1.383   6.502
 1286W        W 2283   3.985   7.425   0.898
 1287W        W 2284   5.171   7.381   2.880
 1288W        W 2285   0.061   1.487   5.192
 1289W        W 2286   4.114   0.242   2.343
 1290W        W 2287   4.686   0.030   7.445
 1291W        W 2288   2.811   2.637   5.717
 1292W        W 2289   5.301   0.539   0.683
 1293W        W 2290   3.173   1.837   7.517
 1294W        W 2291   0.429   5.027   5.229
 1295W        W 2292   7.601   7.132   5.439
 1296W        W 2293   1.914   4.956   0.181
 1297W        W 2294   5.814   0.605   7.206
 1298W        W 2295   2.414   3.338   3.550
 1299W        W 2296   5.515   3.154   0.293
 1300W        W 2297   7.072   0.464   5.924
 1301W        W 2298   7.451   4.429   0.239
 1302W        W 2299   5.108   5.571   3.873
 1303W        W 2300   6.119   4.913   3.718
 1304W        W 2301   6.069   3.507   6.110
 1305W        W 2302   7.708   1.714   7.231
 1306W        W 2303   1.076   5.248   4.481
 1307W        W 2304   7.738   1.006   6.227
 1308W        W 2305   4.952   5.119   0.358
 1309W        W 2306   3.882   7.454   1.443
 1310W        W 2307   7.136   7.857   5.127
 1311W        W 2308   4.823   2.843   3.268
 1312W        W 2309   1.508   2.550   1.237
 1313W        W 2310   3.943   0.452   6.544
 1314W        W 2311   7.671   4.616   1.903
 1315W        W 2312   4.984   0.197   5.627
 1316W        W 2313   1.266   3.859   5.422
 1317W        W 2314   4.074   1.852   1.220
 1318W        W 2315   2.767   6.856   2.116
 1319W        W 2316   2.694   1.833   6.786
 1320W        W 2317   1.776   3.968   1.882
 1321W        W 2318   1.433   6.839   5.911
 1322W        W 2319   0.937   6.741   7.292
 1323W        W 2320   3.873   2.918   0.695
 1324W        W 2321   4.633   1.684   6.480
 1325W        W 2322   5.136   5.654   2.250
 1326W        W 2323   2.224   1.472   2.370
 1327W        W 2324   3.789   6.089   2.538
 1328W        W 2325   2.176   6.495   3.556
 1329W        W 2326   3.637   6.393   4.251
 1330W        W 2327   4.946   7.098   3.972
 1331W        W 2328   2.105   6.729   6.482
 1332W        W 2329   6.312   6.895   0.582
 1333W        W 2330   6.740   4.741   2.733
 1334W        W 2331   2.082   3.323   4.749
 1335W        W 2332   5.952   6.594   1.539
 1336W        W 2333   1.833   4.741   7.357
 1337W        W 2334   6.362   5.429   3.533
 1338W        W 2335   2.922   5.931   5.199
 1339W        W 2336   1.617   6.714   2.744
 1340W        W 2337   5.128   4.140   2.311
 1341W        W 2338   3.305   5.931   0.083
 1342W        W 2339   4.899   1.989   5.242
 1343W        W 2340   6.758   2.202   4.719
 1344W        W 2341   5.590   6.386   6.761
 1345W        W 2342   1.693   7.448   6.320
 1346W        W 2343   0.718   1.108   1.178
 1347W        W 2344   5.579   3.161   7.796
 1348W        W 2345   4.543   5.476   0.451
 1349W        W 2346   1.112   3.647   0.840
 1350W        W 2347   6.331   0.780   2.972
 1351W        W 2348   4.908   4.412   5.364
 1352W        W 2349   7.587   5.823   0.334
 1353W        W 2350   3.714   2.040   1.465
 1354W        W 2351   7.237   5.494   2.855
 1355W        W 2352   3.796   6.571   6.955
 1356W        W 2353   1.778   6.030   1.271
 1357W        W 2354   7.591   2.620   1.561
 1358W        W 2355   1.116   5.761   4.478
 1359W        W 2356   5.633   5.043   6.633
 1360W        W 2357   7.688   3.141   4.289
 1361W        W 2358   3.902   6.224   5.291
 1362W        W 2359   7.548   7.130   7.445
 1363W        W 2360   4.078   6.811   1.228
 1364W        W 2361   7.313   4.817   7.484
 1365W        W 2362   7.388   6.661   7.393
 1366W        W 2363   2.617   2.730   5.294
 1367W        W 2364   0.529   5.970   3.629
 1368W        W 2365   1.082   5.121   3.580
 1369W        W 2366   6.769   6.635   7.704
 1370W        W 2367   0.164   6.131   6.648
 1371W        W 2368   0.785   4.239   2.560
 1372W        W 2369   5.822   4.122   0.417
 1373W        W 2370   3.554   3.598   7.563
 1374W        W 2371   0.559   3.992   6.820
 1375W        W 2372   1.324   3.160   2.276
 1376W        W 2373   1.894   1.102   7.970
 1377W        W 2374   4.534   1.931   3.184
 1378W        W 2375   1.318   0.987   7.823
 1379W        W 2376   5.336   6.642   0.219
 1380W        W 2377   5.751   4.630   2.029
 1381W        W 2378   2.358   2.337   7.234
 1382W        W 2379   5.462   7.445   5.905
 1383W        W 2380   3.398   6.171   5.759
 1384W        W 2381   1.932   6.657   7.394
 1385W        W 2382   5.947   3.208   1.205
 1386W        W 2383   7.018   4.293   7.774
 1387W        W 2384   5.677   0.823   1.485
 1388W        W 2385   0.181   0.313   7.472
 1389W        W 2386   4.061   5.772   6.440
 1390W        W 2387   4.046   2.412   5.076
 1391W        W 2388   7.788   3.530   1.096
 1392W        W 2389   0.514   7.411   3.602
 1393W        W 2390   1.272   7.091   6.285
 1394W        W 2391   6.957   3.770   7.577
 1395W        W 2392   3.530   0.381   6.928
 1396W        W 2393   3.573   2.011   3.508
 1397W        W 2394   7.941   6.739   7.309
 1398W        W 2395   5.642   1.206   5.954
 1399W        W 2396   3.708   0.045   6.418
 1400W        W 2397   5.034   1.272   4.762
 1401W        W 2398   1.725   4.283   6.180
 1402W        W 2399   4.089   2.308   3.037
 1403W        W 2400   3.429   0.065   4.510
 1404W        W 2401   6.949   0.172   3.822
 1405W        W 2402   1.038   3.576   7.433
 1406W        W 2403   2.652   5.645   1.216
 1407W        W 2404   6.126   6.337   3.747
 1408W        W 2405   6.615   3.402   5.975
 1409W        W 2406   2.175   1.295   1.874
 1410W        W 2407   1.999   3.934   4.185
 1411W        W 2408   0.093   1.727   6.402
 1412W        W 2409   3.957   7.669   5.072
 1413W        W 2410   1.754   2.981   6.474
 1414W        W 2411   6.848   5.103   3.094
 1415W        W 2412   1.685   1.293   0.421
 1416W        W 2413   3.094   5.313   2.624
 1417W        W 2414   7.130   4.711   6.527
 1418W        W 2415   5.257   2.207   6.949
 1419W        W 2416   0.439   1.282   2.433
 1420W        W 2417   0.659   7.191   4.113
 1421W        W 2418   6.040   4.928   4.276
 1422W        W 2419   7.192   2.343   1.678
 1423W        W 2420   0.855   0.673   0.025
 1424W        W 2421   1.077   4.228   4.581
 1425W        W 2422   5.578   0.261   5.410
 1426W        W 2423   2.568   4.130   3.144
 1427W        W 2424   3.342   0.838   6.064
 1428W        W 2425   5.847   3.300   0.705
 1429W        W 2426   1.049   2.854   5.481
 1430W        W 2427   3.880   1.009   3.305
 1431W        W 2428   3.349   0.740   2.617
 1432W        W 2429   3.414   0.026   3.754
 1433W        W 2430   5.279   3.992   3.233
 1434W        W 2431   1.204   1.112   5.672
 1435W        W 2432   4.636   3.366   0.664
 1436W        W 2433   5.867   1.910   6.439
 1437W        W 2434   6.972   4.184   3.358
 1438W        W 2435   2.785   0.380   0.604
 1439W        W 2436   7.453   7.326   6.059
 1440W        W 2437   7.622   7.395   6.668
 1441W        W 2438   4.467   7.370   2.231
 1442W        W 2439   5.881   6.534   6.110
 1443W        W 2440   4.989   5.452   0.756
 1444W        W 2441   4.415   1.467   7.041
 1445W        W 2442   7.622   2.966   7.407
 1446W        W 2443   0.696   0.010   4.939
 1447W        W 2444   5.107   6.191   5.599
 1448W        W 2445   2.370   4.307   4.069
 1449W        W 2446   3.922   7.605   7.838
 1450W        W 2447   2.765   6.116   0.203
 1451W        W 2448   6.542   2.731   2.102
 1452W        W 2449   5.764   6.814   0.460
 1453W        W 2450   0.607   5.107   5.786
 1454W        W 2451   5.685   5.510   5.672
 1455W        W 2452   6.651   7.169   3.600
 1456W        W 2453   7.032   1.800   7.258
 1457W        W 2454   7.466   0.457   7.432
 1458W        W 2455   1.287   5.443   7.476
 1459W        W 2456   5.107   0.975   1.586
 1460W        W 2457   6.839   7.828   2.078
 1461W        W 2458   5.096   0.342   3.456
 1462W        W 2459   7.414   3.625   6.082
 1463W        W 2460   7.444   6.258   6.994
 1464W        W 2461   1.698   6.040   0.745
 1465W        W 2462   4.291   7.260   5.202
 1466W        W 2463   1.832   1.599   6.802
 1467W        W 2464   1.571   0.159   3.661
 1468W        W 2465   2.094   1.166   2.820
 1469W        W 2466   4.369   0.714   2.394
 1470W        W 2467   1.978   2.923   3.614
 1471W        W 2468   5.632   6.273   0.555
 1472W        W 2469   0.832   7.449   1.820
 1473W        W 2470   6.322   5.740   3.160
 1474W        W 2471   2.543   3.552   1.080
 1475W        W 2472   4.464   7.476   4.318
 1476W        W 2473   7.209   1.608   1.007
 1477W        W 2474   7.819   2.425   0.823
 1478W        W 2475   7.684   3.770   1.542
 1479W        W 2476   1.791   1.401   2.178
 1480W        W 2477   4.021   1.985   0.088
 1481W        W 2478   4.175   5.704   2.109
 1482W        W 2479   3.777   5.363   5.362
 1483W        W 2480   0.808   4.842   0.512
 1484W        W 2481   0.557   0.767   0.837
 1485W        W 2482   7.396   2.144   2.285
 1486W        W 2483   2.719   4.465   6.255
 1487W        W 2484   3.286   1.367   7.418
 1488W        W 2485   6.292   1.655   3.345
 1489W        W 2486   0.073   7.311   2.727
 1490W        W 2487   4.249   5.123   3.707
 1491W        W 2488   5.061   3.422   7.793
 1492W        W 2489   0.618   1.067   6.389
 1493W        W 2490   6.417   4.384   7.015
 1494W        W 2491   3.487   2.871   3.580
 1495W        W 2492   3.098   0.309   1.107
 1496W        W 2493   5.510   5.288   6.214
 1497W        W 2494   0.645   6.649   2.890
 1498W        W 2495   0.532   6.204   3.129
 1499W        W 2496   3.502   4.934   4.472
 1500W        W 2497   3.043   0.357   7.017
 1501W        W 2498   3.017   4.769   2.442
 1502W        W 2499   6.702   1.587   1.012
 1503W        W 2500   7.654   7.606   4.340
 1504W        W 2501   2.018   2.511   2.460
 1505W        W 2502   6.307   0.071   1.782
 1506W        W 2503   5.339   2.579   3.728
 1507W        W 2504   2.529   5.449   6.412
 1508W        W 2505   7.373   3.802   3.851
 1509W        W 2506   2.520   0.357   6.877
 1510W        W 2507   7.254   2.918   6.584
 1511W        W 2508   2.553   1.263   1.173
 1512W        W 2509   0.615   4.878   2.424
 1513W        W 2510   0.527   1.313   7.570
 1514W        W 2511   7.116   5.438   7.039
 1515W        W 2512   1.996   0.039   3.378
 1516W        W 2513   7.485   2.874   6.173
 1517W        W 2514   0.213   6.878   1.741
 1518W        W 2515   6.753   7.597   4.938
 1519W        W 2516   3.436   4.257   2.072
 1520W        W 2517   7.335   1.510   1.843
 1521W        W 2518   0.624   7.690   4.069
 1522W        W 2519   1.189   5.528   3.936
 1523W        W 2520   3.193   1.760   0.687
 1524W        W 2521   3.407   4.553   0.697
 1525W        W 2522   1.650   1.108   1.739
 1526W        W 2523   0.464   4.182   5.391
 1527W        W 2524   5.085   2.746   4.577
 1528W        W 2525   6.311   1.793   6.945
 1529W        W 2526   4.427   7.403   7.943
 1530W        W 2527   7.248   0.490   4.654
 1531W        W 2528   1.578   0.561   1.513
 1532W        W 2529   1.390   3.206   7.456
 1533W        W 2530   5.150   3.670   7.039
 1534W        W 2531   5.962   7.482   3.126
 1535W        W 2532   1.789   5.157   2.912
 1536W        W 2533   2.531   1.020   2.076
 1537W        W 2534   6.670   2.988   3.101
 1538W        W 2535   3.016   3.384   3.020
 1539W        W 2536   5.513   6.056   4.835
 1540W        W 2537   1.410   4.579   4.291
 1541W        W 2538   0.329   1.328   6.700
 1542W        W 2539   1.992   2.594   6.242
 1543W        W 2540   0.177   2.228   6.485
 1544W        W 2541   4.955   7.737   2.542
 1545W        W 2542   5.435   6.421   5.905
 1546W        W 2543   2.795   3.487   5.861
 1547W        W 2544   5.505   4.971   7.689
 1548W        W 2545   5.537   4.004   1.517
 1549W        W 2546   6.639   4.827   0.731
 1550W        W 2547   1.803   5.346   5.932
 1551W        W 2548   3.276   1.815   5.063
 1552W        W 2549   1.989   5.266   3.367
 1553W        W 2550   4.133   0.137   6.210
 1554W        W 2551   1.441   0.409   2.745
 1555W        W 2552   6.397   3.710   5.643
 1556W        W 2553   7.056   0.768   6.982
 1557W        W 2554   7.061   0.525   2.126
 1558W        W 2555   0.576   4.406   7.164
 1559W        W 2556   1.734   0.332   7.420
 1560W        W 2557   2.660   5.098   7.919
 1561W        W 2558   1.878   5.033   5.482
 1562W        W 2559   4.438   5.155   5.178
 1563W        W 2560   1.765   6.611   2.013
 1564W        W 2561   2.391   3.822   4.472
 1565W        W 2562   5.814   5.830   2.740
 1566W        W 2563   0.692   1.024   3.893
 1567W        W 2564   4.076   4.360   3.129
 1568W        W 2565   3.205   0.791   3.265
 1569W        W 2566   5.526   5.410   6.960
 1570W        W 2567   1.990   2.427   0.388
 1571W        W 2568   2.868   5.553   4.098
 1572W        W 2569   0.980   5.608   5.702
 1573W        W 2570   2.467   0.548   1.911
 1574W        W 2571   2.116   7.090   7.854
 1575W        W 2572   2.000   6.580   3.082
 1576W        W 2573   1.486   6.327   1.615
 1577W        W 2574   6.531   4.885   2.258
 1578W        W 2575   3.216   3.324   6.769
 1579W        W 2576   2.458   2.247   5.464
 1580W        W 2577   2.046   1.167   1.366
 1581W        W 2578   0.776   7.026   3.448
 1582W        W 2579   6.257   0.049   7.804
 1583W        W 2580   2.769   2.332   3.953
 1584W        W 2581   5.881   5.785   2.260
 1585W        W 2582   2.657   2.848   4.251
 1586W        W 2583   7.808   6.537   3.566
 1587W        W 2584   3.516   7.607   4.272
 1588W        W 2585   3.424   6.925   3.613
 1589W        W 2586   0.483   0.297   6.555
 1590W        W 2587   1.912   1.926   2.155
 1591W        W 2588   3.943   1.522   7.879
 1592W        W 2589   4.429   4.711   7.357
 1593W        W 2590   1.396   6.712   7.553
 1594W        W 2591   4.099   3.364   5.994
 1595W        W 2592   7.494   1.191   0.984
 1596W        W 2593   3.853   4.818   0.070
 1597W        W 2594   5.033   5.651   0.213
 1598W        W 2595   5.166   3.297   2.554
 1599W        W 2596   1.111   2.459   6.875
 1600W        W 2597   0.302   0.807   6.721
 1601W        W 2598   4.177   4.628   3.946
 1602W        W 2599   5.798   2.784   3.902
 1603W        W 2600   7.073   4.583   3.715
 1604W        W 2601   4.388   4.202   7.528
 1605W        W 2602   1.249   4.190   0.839
 1606W        W 2603   4.097   2.644   2.627
 1607W        W 2604   4.638   6.353   5.644
 1608W        W 2605   3.580   3.200   1.064
 1609W        W 2606   2.526   3.282   7.359
 1610W        W 2607   3.843   0.785   5.595
 1611W        W 2608   1.962   0.517   3.593
 1612W        W 2609   7.330   6.644   5.037
 1613W        W 2610   3.114   6.868   0.871
 1614W        W 2611   1.413   2.944   7.000
 1615W        W 2612   5.574   2.616   4.746
 1616W        W 2613   3.474   0.799   4.361
 1617W        W 2614   2.069   7.374   4.854
 1618W        W 2615   0.448   0.638   6.210
 1619W        W 2616   2.584   5.970   4.201
 1620W        W 2617   0.985   4.245   5.589
 1621W        W 2618   7.237   3.157   3.177
 1622W        W 2619   1.110   1.259   3.675
 1623W        W 2620   5.261   0.686   1.193
 1624W        W 2621   4.119   2.395   5.632
 1625W        W 2622   1.037   0.452   5.780
 1626W        W 2623   6.299   6.001   5.856
 1627W        W 2624   1.074   0.291   3.689
 1628W        W 2625   6.143   0.541   2.088
 1629W        W 2626   5.531   6.685   1.928
 1630W        W 2627   2.042   2.409   3.534
 1631W        W 2628   4.395   2.448   3.909
 1632W        W 2629   4.419   0.971   7.169
 1633W        W 2630   0.638   0.525   7.210
 1634W        W 2631   2.848   5.053   4.266
 1635W        W 2632   6.034   5.371   2.947
 1636W        W 2633   7.386   3.899   0.274
 1637W        W 2634   3.674   5.952   4.055
 1638W        W 2635   1.230   7.334   0.843
 1639W        W 2636   1.219   1.645   0.593
 1640W        W 2637   6.641   4.362   0.719
 1641W        W 2638   3.288   3.889   5.962
 1642W        W 2639   7.706   2.435   2.812
 1643W        W 2640   0.890   2.120   4.923
 1644W        W 2641   2.443   6.161   5.267
 1645W        W 2642   1.811   5.290   6.790
 1646W        W 2643   3.406   2.905   0.505
 1647W        W 2644   4.133   5.179   7.571
 1648W        W 2645   2.783   3.019   2.816
 1649W        W 2646   1.930   7.493   5.355
 1650W        W 2647   1.720   5.963   4.000
 1651W        W 2648   6.384   7.461   3.976
 1652W        W 2649   4.255   5.130   6.119
 1653W        W 2650   6.893   2.676   4.015
 1654W        W 2651   7.917   1.335   0.567
 1655W        W 2652   2.199   1.995   6.868
 1656W        W 2653   7.769   0.007   0.609
 1657W        W 2654   3.719   0.018   3.235
 1658W        W 2655   4.320   7.270   0.451
 1659W        W 2656   5.418   6.375   7.265
 1660W        W 2657   4.813   4.765   3.028
 1661W        W 2658   2.061   6.437   0.850
 1662W        W 2659   2.863   5.175   5.543
 1663W        W 2660   0.153   2.682   0.156
 1664W        W 2661   2.775   4.943   2.837
 1665W        W 2662   2.021   3.080   1.712
 1666W        W 2663   7.318   7.049   6.474
 1667W        W 2664   0.326   0.362   5.032
 1668W        W 2665   4.045   6.518   2.556
 1669W        W 2666   3.916   2.169   2.571
 1670W        W 2667   0.726   0.133   1.450
 1671W        W 2668   4.917   4.577   6.107
 1672W        W 2669   5.090   2.202   1.444
 1673W        W 2670   4.726   6.268   3.282
 1674W        W 2671   2.015   3.447   4.292
 1675W        W 2672   0.942   0.045   7.397
 1676W        W 2673   1.862   7.796   7.231
 1677W        W 2674   4.214   6.426   0.818
 1678W        W 2675   3.070   3.944   5.142
 1679W        W 2676   4.512   0.027   1.725
 1680W        W 2677   0.766   6.490   4.750
 1681W        W 2678   6.610   2.008   7.665
 1682W        W 2679   3.714   6.869   0.295
 1683W        W 2680   4.883   0.308   0.446
 1684W        W 2681   2.308   3.787   7.320
 1685W        W 2682   2.179   4.201   5.958
 1686W        W 2683   2.951   1.450   3.834
 1687W        W 2684   1.573   0.384   4.582
 1688W        W 2685   1.293   4.122   1.702
 1689W        W 2686   1.215   3.061   5.914
 1690W        W 2687   1.364   0.711   1.909
 1691W        W 2688   6.632   3.002   3.596
 1692W        W 2689   5.205   3.388   0.588
 1693W        W 2690   4.047   6.348   3.892
 1694W        W 2691   5.036   3.868   1.023
 1695W        W 2692   3.318   1.371   1.550
 1696W        W 2693   2.112   6.221   4.236
 1697W        W 2694   3.852   3.025   1.763
 1698W        W 2695   6.383   1.554   7.511
 1699W        W 2696   3.671   7.465   4.715
 1700W        W 2697   4.329   4.651   0.978
 1701W        W 2698   0.715   6.990   4.646
 1702W        W 2699   4.883   4.704   7.157
 1703W        W 2700   6.255   2.020   4.540
 1704W        W 2701   0.548   2.462   1.569
 1705W        W 2702   4.487   5.047   1.235
 1706W        W 2703   2.172   6.763   0.433
 1707W        W 2704   1.522   4.102   4.276
 1708W        W 2705   0.988   3.514   5.086
 1709W        W 2706   2.072   5.509   5.415
 1710W        W 2707   6.735   0.824   0.649
 1711W        W 2708   4.665   1.165   0.297
 1712W        W 2709   0.621   6.282   2.585
 1713W        W 2710   4.929   5.654   6.654
 1714W        W 2711   4.505   1.092   6.669
 1715W        W 2712   0.290   6.139   6.042
 1716W        W 2713   6.005   7.506   5.724
 1717W        W 2714   3.982   4.589   2.126
 1718W        W 2715   5.580   7.423   4.392
 1719W        W 2716   3.972   0.976   2.861
 1720W        W 2717   7.447   6.249   5.807
 1721W        W 2718   2.034   0.786   1.824
 1722W        W 2719   7.803   0.754   4.114
 1723W        W 2720   0.612   7.069   7.615
 1724W        W 2721   2.352   5.459   0.670
 1725W        W 2722   1.368   7.756   1.100
 1726W        W 2723   0.932   1.536   7.806
 1727W        W 2724   1.355   7.960   7.427
 1728W        W 2725   5.969   2.937   7.246
 1729W        W 2726   2.370   6.774   1.299
 1730W        W 2727   4.830   1.667   0.222
 1731W        W 2728   4.447   4.458   4.385
 1732W        W 2729   6.983   6.902   2.143
 1733W        W 2730   3.076   6.488   3.479
 1734W        W 2731   3.312   3.741   7.089
 1735W        W 2732   3.918   2.826   0.213
 1736W        W 2733   3.806   6.906   2.221
 1737W        W 2734   7.464   4.337   1.413
 1738W        W 2735   1.634   1.361   7.526
 1739W        W 2736   6.781   5.229   7.787
 1740W        W 2737   0.574   4.829   6.865
 1741W        W 2738   0.809   6.249   6.416
 1742W        W 2739   1.505   1.445   5.910
 1743W        W 2740   2.334   4.612   3.045
 1744W        W 2741   6.421   3.439   1.378
 1745W        W 2742   2.523   3.767   3.990
 1746W        W 2743   5.718   6.797   7.143
 1747W        W 2744   4.141   2.110   4.654
 1748W        W 2745   3.156   3.795   2.145
 1749W        W 2746   7.337   2.077   0.571
 1750W        W 2747   5.039   2.898   5.793
 1751W        W 2748   6.321   3.321   0.828
 1752W        W 2749   4.276   5.978   5.638
 1753W        W 2750   7.434   7.999   7.757
 1754W        W 2751   6.953   3.751   4.740
 1755W        W 2752   3.286   7.186   5.262
 1756W        W 2753   3.228   1.384   4.333
 1757W        W 2754   1.714   7.015   3.110
 1758W        W 2755   4.507   1.992   3.671
 1759W        W 2756   4.557   0.474   6.112
 1760W        W 2757   2.732   1.795   4.676
 1761W        W 2758   6.096   7.198   1.694
 1762W        W 2759   3.501   5.123   1.203
 1763W        W 2760   0.218   3.341   0.548
 1764W        W 2761   1.149   1.280   0.176
 1765W        W 2762   6.651   5.012   3.663
 1766W        W 2763   2.243   6.374   6.846
 1767W        W 2764   3.839   5.018   1.902
 1768W        W 2765   4.609   3.604   7.491
 1769W        W 2766   0.145   7.014   7.565
 1770W        W 2767   5.795   7.642   5.286
 1771W        W 2768   6.118   6.671   2.613
 1772W        W 2769   0.041   3.567   4.054
 1773W        W 2770   7.584   1.423   3.453
 1774W        W 2771   2.062   0.753   5.628
 1775W        W 2772   1.268   3.395   4.717
 1776W        W 2773   0.701   2.712   7.109
 1777W        W 2774   0.211   6.146   2.027
 1778W        W 2775   4.886   3.186   5.348
 1779W        W 2776   3.319   6.605   1.799
 1780W        W 2777   0.478   5.827   0.451
 1781W        W 2778   5.625   4.828   4.497
 1782W        W 2779   1.130   4.680   3.813
 1783W        W 2780   5.034   5.779   4.941
 1784W        W 2781   7.385   6.463   0.108
 1785W        W 2782   0.993   4.627   2.170
 1786W        W 2783   1.239   3.952   2.832
 1787W        W 2784   4.080   1.861   5.925
 1788W        W 2785   6.219   3.480   1.869
 1789W        W 2786   3.275   5.192   5.873
 1790W        W 2787   1.488   3.470   6.015
 1791W        W 2788   6.354   2.104   5.081
 1792W        W 2789   1.212   4.380   1.303
 1793W        W 2790   6.844   4.263   6.637
 1794W        W 2791   1.089   6.075   1.719
 1795W        W 2792   0.263   5.949   2.745
 1796W        W 2793   4.371   5.161   7.115
 1797W        W 2794   2.051   0.698   1.134
 1798W        W 2795   5.958   1.234   0.640
 1799W        W 2796   3.764   1.533   2.223
 1800W        W 2797   7.117   4.665   0.600
 1801W        W 2798   5.474   0.387   4.764
 1802W        W 2799   7.461   4.369   3.499
 1803W        W 2800   5.412   4.293   0.654
 1804W        W 2801   2.245   1.882   6.034
 1805W        W 2802   3.278   0.957   6.817
 1806W        W 2803   7.207   7.464   0.255
 1807W        W 2804   7.474   4.896   3.837
 1808W        W 2805   0.162   5.335   3.125
 1809W        W 2806   0.639   0.516   3.984
 1810W        W 2807   0.563   6.360   6.866
 1811W        W 2808   1.679   3.131   3.960
 1812W        W 2809   0.231   0.396   6.987
 1813W        W 2810   1.862   5.139   2.330
 1814W        W 2811   5.347   1.805   7.285
 1815W        W 2812   5.484   5.382   1.431
 1816W        W 2813   4.147   1.825   2.859
 1817W        W 2814   2.121   5.639   6.736
 1818W        W 2815   0.173   6.455   2.522
 1819W        W 2816   5.135   4.834   0.711
 1820W        W 2817   0.910   2.543   2.820
 1821W        W 2818   7.288   0.628   2.954
 1822W        W 2819   6.087   0.257   5.507
 1823W        W 2820   6.699   5.577   6.068
 1824W        W 2821   1.514   6.414   4.897
 1825W        W 2822   3.148   2.064   6.582
 1826W        W 2823   7.590   4.065   6.029
 1827W        W 2824   7.778   2.212   3.494
 1828W        W 2825   2.633   6.592   6.671
 1829W        W 2826   3.049   3.194   0.397
 1830W        W 2827   7.161   2.308   6.846
 1831W        W 2828   5.751   4.509   2.904
 1832W        W 2829   1.516   6.114   0.282
 1833W        W 2830   2.008   2.416   2.989
 1834W        W 2831   6.247   5.436   5.905
 1835W        W 2832   0.508   3.635   5.074
 1836W        W 2833   5.797   3.576   0.022
 1837W        W 2834   6.622   0.755   5.958
 1838W        W 2835   1.246   4.714   4.776
 1839W        W 2836   2.197   0.056   1.894
 1840W        W 2837   2.090   3.210   2.385
 1841W        W 2838   3.004   6.184   6.099
 1842W        W 2839   1.817   4.992   1.822
 1843W        W 2840   4.865   2.099   6.601
 1844W        W 2841   6.064   3.808   1.584
 1845W        W 2842   5.454   0.482   0.221
 1846W        W 2843   3.931   4.829   6.378
 1847W        W 2844   2.298   0.101   5.777
 1848W        W 2845   4.324   1.275   2.658
 1849W        W 2846   6.648   5.476   3.956
 1850W        W 2847   3.206   0.200   7.426
 1851W        W 2848   3.348   5.392   4.159
 1852W        W 2849   6.829   1.081   2.116
 1853W        W 2850   3.873   3.403   4.280
 1854W        W 2851   0.250   5.444   2.615
 1855W        W 2852   2.171   3.129   1.158
 1856W        W 2853   0.761   5.834   1.365
 1857W        W 2854   2.897   5.189   1.945
 1858W        W 2855   6.924   5.663   7.516
 1859W        W 2856   0.999   1.575   1.240
 1860W        W 2857   2.669   5.857   0.711
 1861W        W 2858   2.109   6.761   4.220
 1862W        W 2859   1.855   0.008   4.644
 1863W        W 2860   1.808   0.282   6.695
 1864W        W 2861   4.581   3.576   0.203
 1865W        W 2862   1.275   3.983   5.953
 1866W        W 2863   7.166   7.340   7.073
 1867W        W 2864   4.955   7.670   5.810
 1868W        W 2865   3.845   4.224   0.864
 1869W        W 2866   3.553   7.069   3.098
 1870W        W 2867   0.902   5.098   5.379
 1871W        W 2868   0.218   5.814   7.459
 1872W        W 2869   3.240   5.366   7.827
 1873W        W 2870   6.828   2.538   2.613
 1874W        W 2871   7.382   1.826   7.628
 1875W        W 2872   7.585   2.101   4.553
 1876W        W 2873   1.988   3.482   3.790
 1877W        W 2874   6.986   1.091   7.327
 1878W        W 2875   6.021   2.005   3.662
 1879W        W 2876   3.232   3.637   1.184
 1880W        W 2877   7.208   6.114   2.773
 1881W        W 2878   2.721   6.087   2.596
 1882W        W 2879   2.496   3.248   1.568
 1883W        W 2880   5.125   4.333   6.740
 1884W        W 2881   3.246   3.966   4.592
 1885W        W 2882   4.933   3.135   0.230
 1886W        W 2883   5.919   0.474   3.160
 1887W        W 2884   2.226   5.983   3.793
 1888W        W 2885   3.987   5.360   6.617
 1889W        W 2886   6.694   0.054   2.632
 1890W        W 2887   7.046   1.351   2.748
 1891W        W 2888   3.568   5.426   3.695
 1892W        W 2889   1.183   2.925   4.479
 1893W        W 2890   5.804   2.326   4.417
 1894W        W 2891   2.377   6.324   2.837
 1895W        W 2892   2.756   1.468   7.538
 1896W        W 2893   2.851   1.354   4.767
 1897W        W 2894   4.930   2.152   0.417
 1898W        W 2895   1.365   5.575   2.878
 1899W        W 2896   5.550   0.934   0.903
 1900W        W 2897   2.230   4.743   2.211
 1901W        W 2898   1.994   3.242   5.618
 1902W        W 2899   7.504   0.718   2.275
 1903W        W 2900   1.609   5.640   1.037
 1904W        W 2901   6.337   6.748   3.548
 1905W        W 2902   4.734   1.451   7.433
 1906W        W 2903   5.458   7.250   7.553
 1907W        W 2904   4.716   6.765   3.543
 1908W        W 2905   7.744   3.892   3.563
 1909W        W 2906   0.779   0.999   0.453
 1910W        W 2907   1.308   3.509   7.007
 1911W        W 2908   1.600   0.992   1.243
 1912W        W 2909   1.279   7.200   7.412
 1913W        W 2910   1.781   2.625   1.639
 1914W        W 2911   3.090   7.656   1.864
 1915W        W 2912   1.947   4.569   5.697
 1916W        W 2913   4.389   6.038   6.102
 1917W        W 2914   3.083   3.534   2.502
 1918W        W 2915   5.890   4.705   6.356
 1919W        W 2916   1.082   0.725   7.076
 1920W        W 2917   0.538   5.265   0.141
 1921W        W 2918   6.805   6.437   2.152
 1922W        W 2919   3.837   6.798   3.835
 1923W        W 2920   7.790   7.073   6.995
 1924W        W 2921   7.244   0.813   4.263
 1925W        W 2922   5.303   5.041   3.127
 1926W        W 2923   3.117   3.294   7.520
 1927W        W 2924   2.739   3.922   6.057
 1928W        W 2925   0.376   5.804   6.950
 1929W        W 2926   1.110   3.821   1.276
 1930W        W 2927   1.421   1.628   3.957
 1931W        W 2928   5.507   5.082   5.500
 1932W        W 2929   3.947   3.026   4.696
 1933W        W 2930   5.989   6.834   2.167
 1934W        W 2931   1.529   5.814   1.707
 1935W        W 2932   6.769   6.851   5.832
 1936W        W 2933   6.058   0.478   4.867
 1937W        W 2934   4.480   1.822   4.931
 1938W        W 2935   4.725   0.042   3.589
 1939W        W 2936   7.475   1.578   0.488
 1940W        W 2937   1.537   7.087   1.849
 1941W        W 2938   5.630   6.787   1.121
 1942W        W 2939   4.373   0.793   0.964
 1943W        W 2940   4.092   1.777   3.399
 1944W        W 2941   0.644   2.928   1.359
 1945W        W 2942   6.453   3.035   7.293
 1946W        W 2943   4.664   1.779   1.867
 1947W        W 2944   6.258   2.288   0.773
 1948W        W 2945   7.704   1.951   6.328
 1949W        W 2946   5.886   0.027   5.063
 1950W        W 2947   7.154   1.682   3.069
 1951W        W 2948   1.773   5.616   6.378
 1952W        W 2949   1.520   5.386   2.095
 1953W        W 2950   2.013   0.075   6.290
 1954W        W 2951   7.173   7.619   3.381
 1955W        W 2952   2.583   0.053   0.162
 1956W        W 2953   2.198   3.979   4.941
 1957W        W 2954   7.267   2.039   4.888
 1958W        W 2955   7.338   6.605   1.920
 1959W        W 2956   5.860   1.826   3.177
 1960W        W 2957   4.464   2.025   0.416
 1961W        W 2958   1.119   1.322   1.653
 1962W        W 2959   6.616   3.000   2.510
 1963W        W 2960   1.089   0.951   6.147
 1964W        W 2961   7.939   7.609   1.269
 1965W        W 2962   7.814   6.561   6.840
 1966W        W 2963   3.399   1.465   7.873
 1967W        W 2964   0.905   2.939   1.780
 1968W        W 2965   6.565   5.266   1.696
 1969W        W 2966   2.942   1.370   0.471
 1970W        W 2967   7.490   3.705   5.539
 1971W        W 2968   7.928   7.158   1.884
 1972W        W 2969   3.392   6.196   5.279
 1973W        W 2970   6.058   4.792   2.478
 1974W        W 2971   2.781   0.949   5.994
 1975W        W 2972   6.084   7.280   4.401
 1976W        W 2973   6.257   2.546   7.049
 1977W        W 2974   4.510   0.641   0.463
 1978W        W 2975   3.231   4.870   3.951
 1979W        W 2976   2.786   2.278   2.540
 1980W        W 2977   3.359   7.246   2.620
 1981W        W 2978   1.111   5.001   6.637
 1982W        W 2979   1.914   4.505   0.423
 1983W        W 2980   4.808   0.959   5.238
 1984W        W 2981   6.547   1.250   2.513
 1985W        W 2982   3.953   4.801   4.660
 1986W        W 2983   3.942   5.517   7.113
 1987W        W 2984   0.980   5.934   6.746
 1988W        W 2985   2.474   4.554   3.569
 1989W        W 2986   4.230   3.791   5.564
 1990W        W 2987   4.058   2.877   5.157
 1991W        W 2988   0.227   0.752   3.516
 1992W        W 2989   2.263   0.605   6.523
 1993W        W 2990   0.232   0.842   4.000
 1994W        W 2991   2.121   3.572   5.233
 1995W        W 2992   6.693   0.490   2.870
 1996W        W 2993   2.684   4.019   1.933
 1997W        W 2994   6.948   5.099   0.420
 1998W        W 2995   4.020   3.477   7.739
 1999W        W 2996   2.827   0.854   6.900
 2000W        W 2997   7.252   3.724   3.317
 2001W        W 2998   0.162   1.208   6.194
 2002W        W 2999   4.949   4.012   3.649
 2003W        W 3000   0.939   2.608   1.054
 2004W        W 3001   6.930   3.290   1.548
 2005W        W 3002   5.167   2.924   7.698
 2006W        W 3003   6.875   2.443   7.941
 2007W        W 3004   2.224   7.372   2.325
 2008W        W 3005   1.354   6.380   3.694
 2009W        W 3006   0.232   0.326   0.117
 2010W        W 3007   6.595   7.303   4.501
 2011W        W 3008   2.483   2.831   2.485
 2012W        W 3009   4.043   3.532   1.679
 2013W        W 3010   2.497   5.128   0.319
 2014W        W 3011   5.769   2.356   6.202
 2015W        W 3012   4.160   1.781   2.363
 2016W        W 3013   6.145   3.224   7.673
 2017W        W 3014   7.013   5.180   2.507
 2018W        W 3015   2.883   2.815   3.299
 2019W        W 3016   2.329   1.970   4.965
 2020W        W 3017   1.610   4.718   1.373
 2021W        W 3018   1.421   4.692   0.411
 2022W        W 3019   3.969   2.968   3.260
 2023W        W 3020   0.714   2.734   4.520
 2024W        W 3021   3.964   0.095   7.596
 2025W        W 3022   6.964   1.535   2.299
 2026W        W 3023   0.810   3.740   4.701
 2027W        W 3024   4.173   0.688   4.726
 2028W        W 3025   6.142   3.025   2.139
 2029W        W 3026   0.879   4.754   4.268
 2030W        W 3027   7.896   6.912   3.206
 2031W        W 3028   5.367   4.123   7.115
 2032W        W 3029   6.887   0.308   4.326
 2033W        W 3030   7.839   1.862   0.694
 2034W        W 3031   0.456   6.649   3.371
 2035W        W 3032   6.847   7.061   6.775
 2036W        W 3033   6.100   5.880   4.204
 2037W        W 3034   5.428   4.338   6.311
 2038W        W 3035   0.696   2.593   5.201
 2039W        W 3036   4.785   7.683   3.005
 2040W        W 3037   3.725   7.776   2.289
 2041W        W 3038   3.485   1.510   4.750
 2042W        W 3039   5.561   2.458   2.033
 2043W        W 3040   0.203   4.385   2.512
 2044W        W 3041   3.345   1.759   6.980
 2045W        W 3042   7.265   3.383   4.131
 2046W        W 3043   0.897   2.437   1.927
 2047W        W 3044   6.744   5.944   5.570
 2048W        W 3045   3.267   7.841   2.957
 2049W        W 3046   4.155   3.388   0.822
 2050W        W 3047   1.011   4.268   3.553
 2051W        W 3048   4.041   0.098   2.881
 2052W        W 3049   5.980   0.222   6.923
 2053W        W 3050   5.361   5.747   4.392
 2054W        W 3051   5.443   6.904   6.586
 2055W        W 3052   5.150   4.302   1.191
 2056W        W 3053   3.982   0.049   1.331
 2057W        W 3054   0.950   7.602   7.897
 2058W        W 3055   2.175   4.301   4.528
 2059W        W 3056   4.747   2.482   2.916
 2060W        W 3057   7.028   7.809   1.031
 2061W        W 3058   1.715   3.751   2.946
 2062W        W 3059   1.969   0.800   7.492
 2063W        W 3060   3.614   5.681   6.101
 2064W        W 3061   6.375   0.152   3.029
 2065W        W 3062   6.940   7.160   3.148
 2066W        W 3063   0.904   0.203   6.894
 2067W        W 3064   6.977   2.464   1.216
 2068W        W 3065   4.050   4.918   1.443
 2069W        W 3066   1.003   7.335   3.802
 2070W        W 3067   6.036   4.268   4.576
 2071W        W 3068   7.041   7.097   7.540
 2072W        W 3069   0.184   4.545   7.415
 2073W        W 3070   3.354   2.013   1.790
 2074W        W 3071   2.768   0.619   3.835
 2075W        W 3072   5.449   2.810   6.303
 2076W        W 3073   0.665   0.563   4.547
 2077W        W 3074   1.060   6.492   1.365
 2078W        W 3075   5.555   7.621   7.290
 2079W        W 3076   3.691   5.193   2.841
 2080W        W 3077   7.685   3.752   0.675
 2081W        W 3078   7.342   4.455   4.127
 2082W        W 3079   0.872   0.546   1.706
 2083W        W 3080   7.572   0.771   0.087
 2084W        W 3081   6.722   6.583   0.658
 2085W        W 3082   1.899   2.264   4.275
 2086W        W 3083   0.443   7.415   7.157
 2087W        W 3084   1.786   7.842   0.605
 2088W        W 3085   1.247   2.453   5.273
 2089W        W 3086   7.451   7.665   4.820
 2090W        W 3087   2.120   6.678   2.532
 2091W        W 3088   5.907   4.243   7.130
 2092W        W 3089   6.799   7.672   5.475
 2093W        W 3090   0.806   3.828   6.025
 2094W        W 3091   4.331   5.525   0.889
 2095W        W 3092   2.074   1.051   0.724
 2096W        W 3093   7.492   0.128   5.132
 2097W        W 3094   5.073   7.462   4.394
 2098W        W 3095   6.704   5.388   4.885
 2099W        W 3096   6.397   7.263   3.116
 2100W        W 3097   5.725   3.801   4.419
 2101W        W 3098   3.717   5.742   5.093
 2102W        W 3099   4.792   2.132   4.068
 2103W        W 3100   7.123   6.255   4.071
 2104W        W 3101   0.327   2.872   7.453
 2105W        W 3102   1.078   7.080   2.087
 2106W        W 3103   0.613   0.002   0.178
 2107W        W 3104   6.944   3.436   0.304
 2108W        W 3105   2.419   6.278   0.534
 2109W        W 3106   7.835   2.327   2.343
 2110W        W 3107   2.330   4.349   0.738
 2111W        W 3108   4.846   5.551   4.475
 2112W        W 3109   3.010   2.529   6.167
 2113W        W 3110   1.520   3.293   3.084
 2114W        W 3111   5.039   4.198   2.823
 2115W        W 3112   7.788   2.970   6.560
 2116W        W 3113   4.629   6.282   1.933
 2117W        W 3114   4.204   0.818   0.112
 2118W        W 3115   6.707   0.517   4.802
 2119W        W 3116   4.422   0.979   3.282
 2120W        W 3117   4.621   4.225   5.770
 2121W        W 3118   1.565   6.430   4.329
 2122W        W 3119   0.408   0.875   3.054
 2123W        W 3120   6.818   5.697   1.894
 2124W        W 3121   4.923   0.493   1.603
 2125W        W 3122   6.733   6.893   7.191
 2126W        W 3123   5.080   6.180   0.174
 2127W        W 3124   1.728   0.347   1.988
 2128W        W 3125   1.136   2.339   1.479
 2129W        W 3126   4.916   3.628   2.192
 2130W        W 3127   4.574   7.926   4.492
 2131W        W 3128   6.431   2.981   4.706
 2132W        W 3129   4.453   1.194   1.762
 2133W        W 3130   3.291   6.397   4.633
 2134W        W 3131   6.050   6.236   2.412
 2135W        W 3132   3.663   7.116   1.159
 2136W        W 3133   0.318   6.306   3.936
 2137W        W 3134   0.132   4.937   6.495
 2138W        W 3135   1.314   4.224   6.464
 2139W        W 3136   5.599   6.659   2.415
 2140W        W 3137   7.719   2.776   5.212
 2141W        W 3138   6.565   1.234   0.507
 2142W        W 3139   6.858   0.999   4.632
 2143W        W 3140   6.632   4.112   7.472
 2144W        W 3141   4.568   6.102   7.586
 2145W        W 3142   6.335   5.825   4.635
 2146W        W 3143   4.731   1.141   2.898
 2147W        W 3144   0.518   0.560   5.704
 2148W        W 3145   3.605   6.627   0.859
 2149W        W 3146   7.566   3.554   1.996
 2150W        W 3147   5.644   4.654   5.854
 2151W        W 3148   6.440   5.876   3.756
 2152W        W 3149   7.455   4.821   1.507
 2153W        W 3150   7.054   1.237   0.668
 2154W        W 3151   3.747   0.504   7.963
 2155W        W 3152   0.305   2.608   4.757
 2156W        W 3153   4.836   0.914   2.460
 2157W        W 3154   7.461   0.564   5.467
 2158W        W 3155   1.196   2.100   3.814
 2159W        W 3156   7.560   2.897   0.353
 2160W        W 3157   3.531   2.557   3.964
 2161W        W 3158   4.115   3.401   3.527
 2162W        W 3159   2.665   1.281   2.603
 2163W        W 3160   6.451   7.251   5.908
 2164W        W 3161   4.643   2.299   1.643
 2165W        W 3162   5.734   6.775   3.586
 2166W        W 3163   3.903   3.805   0.033
 2167W        W 3164   1.245   1.892   7.627
 2168W        W 3165   1.369   0.912   4.711
 2169W        W 3166   3.060   7.139   1.803
 2170W        W 3167   7.712   2.916   1.059
 2171W        W 3168   6.502   4.965   6.060
 2172W        W 3169   3.713   3.025   7.632
 2173W        W 3170   1.917   1.758   4.161
 2174W        W 3171   4.830   5.991   4.145
 2175W        W 3172   6.005   5.173   6.258
 2176W        W 3173   2.016   3.438   6.221
 2177W        W 3174   6.293   5.731   2.574
 2178W        W 3175   6.619   6.289   4.656
 2179W        W 3176   6.605   0.380   5.674
 2180W        W 3177   1.946   6.233   2.305
 2181W        W 3178   6.194   2.331   4.114
 2182W        W 3179   6.335   2.501   4.544
 2183W        W 3180   7.197   7.111   5.707
 2184W        W 3181   3.845   7.229   3.597
 2185W        W 3182   3.094   5.030   7.484
 2186W        W 3183   1.483   2.462   2.911
 2187W        W 3184   6.832   3.459   3.281
 2188W        W 3185   7.644   1.662   4.360
 2189W        W 3186   2.259   4.979   2.707
 2190W        W 3187   1.927   5.742   3.512
 2191W        W 3188   6.951   5.347   4.430
 2192W        W 3189   4.527   7.290   3.814
 2193W        W 3190   4.809   7.388   6.248
 2194W        W 3191   1.508   0.918   0.706
 2195W        W 3192   2.419   6.193   7.567
 2196W        W 3193   1.471   1.984   5.645
 2197W        W 3194   6.239   7.153   2.653
 2198W        W 3195   6.896   5.240   6.613
 2199W        W 3196   5.987   6.706   4.450
 2200W        W 3197   6.414   5.671   0.829
 2201W        W 3198   1.709   3.452   2.051
 2202W        W 3199   5.853   5.479   3.467
 2203W        W 3200   5.027   6.128   3.666
 2204W        W 3201   1.676   0.131   1.333
 2205W        W 3202   6.952   7.493   2.838
 2206W        W 3203   6.462   3.965   1.228
 2207W        W 3204   1.542   2.613   4.929
 2208W        W 3205   6.478   7.410   2.230
 2209W        W 3206   4.171   7.735   0.390
 2210W        W 3207   3.951   3.773   3.846
 2211W        W 3208   3.476   6.216   6.247
 2212W        W 3209   4.144   1.086   0.563
 2213W        W 3210   5.976   4.273   1.778
 2214W        W 3211   4.231   3.468   6.724
 2215W        W 3212   7.483   5.725   2.533
 2216W        W 3213   4.136   3.286   2.536
 2217W        W 3214   6.695   3.304   5.453
 2218W        W 3215   4.039   0.591   4.170
 2219W        W 3216   2.926   2.115   7.123
 2220W        W 3217   2.477   6.826   2.954
 2221W        W 3218   5.555   3.660   3.024
 2222W        W 3219   2.247   4.159   6.946
 2223W        W 3220   5.390   3.030   1.382
 2224W        W 3221   6.106   2.278   6.644
 2225W        W 3222   2.685   5.626   4.663
 2226W        W 3223   4.984   1.447   5.905
 2227W        W 3224   5.739   3.897   4.912
 2228W        W 3225   1.410   4.859   2.240
 2229W        W 3226   4.997   3.088   4.195
 2230W        W 3227   2.423   0.289   3.616
 2231W        W 3228   1.099   2.567   4.093
 2232W        W 3229   1.967   3.293   3.298
 2233W        W 3230   1.714   3.865   5.086
 2234W        W 3231   6.123   4.246   6.524
 2235W        W 3232   5.251   3.082   4.908
 2236W        W 3233   5.037   5.659   3.284
 2237W        W 3234   3.815   5.509   3.243
 2238W        W 3235   1.780   2.873   2.126
 2239W        W 3236   3.029   1.021   7.718
 2240W        W 3237   6.670   6.111   7.621
 2241W        W 3238   0.292   7.669   4.888
 2242W        W 3239   7.135   7.534   6.400
 2243W        W 3240   4.574   3.697   5.924
 2244W        W 3241   2.107   2.008   0.655
 2245W        W 3242   5.652   6.236   1.100
 2246W        W 3243   3.255   7.550   6.398
 2247W        W 3244   3.218   6.107   1.907
 2248W        W 3245   6.686   6.003   4.203
 2249W        W 3246   1.450   0.460   4.087
 2250W        W 3247   2.841   6.672   1.246
 2251W        W 3248   1.278   3.882   4.863
 2252W        W 3249   5.001   5.580   7.208
 2253W        W 3250   6.966   4.513   7.226
 2254W        W 3251   5.764   7.175   5.399
 2255W        W 3252   4.330   1.230   4.911
 2256W        W 3253   3.341   5.430   3.134
 2257W        W 3254   1.903   2.693   0.976
 2258W        W 3255   5.820   0.175   0.058
 2259W        W 3256   0.478   6.759   5.044
 2260W        W 3257   5.564   5.823   5.305
 2261W        W 3258   4.043   5.097   0.883
 2262W        W 3259   5.302   6.684   0.721
 2263W        W 3260   0.690   5.426   4.971
 2264W        W 3261   2.518   0.477   4.889
 2265W        W 3262   0.700   3.652   7.780
 2266W        W 3263   3.209   1.862   4.540
 2267W        W 3264   1.488   5.189   6.388
 2268W        W 3265   1.044   1.307   4.171
 2269W        W 3266   3.809   7.745   2.842
 2270W        W 3267   6.523   5.783   7.263
 2271W        W 3268   3.752   0.503   6.073
 2272W        W 3269   4.783   6.740   2.770
 2273W        W 3270   3.101   5.711   1.584
 2274W        W 3271   3.629   3.848   0.435
 2275W        W 3272   5.246   2.146   3.864
 2276W        W 3273   0.525   2.920   5.693
 2277W        W 3274   6.967   2.028   1.001
 2278W        W 3275   4.198   2.082   1.728
 2279W        W 3276   2.406   5.881   1.700
 2280W        W 3277   4.833   2.440   3.589
 2281W        W 3278   3.858   0.726   2.009
 2282W        W 3279   1.931   6.158   1.784
 2283W        W 3280   2.208   0.347   1.461
 2284W        W 3281   5.854   4.893   3.268
 2285W        W 3282   1.214   5.196   5.003
 2286W        W 3283   6.746   2.628   6.981
 2287W        W 3284   7.754   1.383   6.869
 2288W        W 3285   7.678   3.352   3.801
 2289W        W 3286   3.599   4.221   3.202
 2290W        W 3287   4.835   6.475   6.102
 2291W        W 3288   2.079   7.093   2.774
 2292W        W 3289   0.333   0.955   2.018
 2293W        W 3290   2.251   4.376   7.539
 2294W        W 3291   4.640   3.769   4.008
 2295W        W 3292   1.031   7.581   2.617
 2296W        W 3293   1.216   3.720   3.284
 2297W        W 3294   6.456   1.651   3.801
 2298W        W 3295   4.944   2.586   4.064
 2299W        W 3296   4.989   1.796   3.641
 2300W        W 3297   5.051   0.339   4.028
 2301W        W 3298   3.642   3.473   2.554
 2302W        W 3299   3.650   0.017   5.881
 2303W        W 3300   1.544   5.166   0.676
 2304W        W 3301   4.218   7.699   3.800
 2305W        W 3302   7.775   6.169   2.697
 2306W        W 3303   6.368   3.887   6.190
 2307W        W 3304   1.510   2.028   4.292
 2308W        W 3305   0.429   1.961   2.520
 2309W        W 3306   4.657   2.781   7.385
 2310W        W 3307   1.677   1.401   4.370
 2311W        W 3308   2.210   7.171   6.605
 2312W        W 3309   2.523   4.450   1.529
 2313W        W 3310   7.815   3.313   6.166
 2314W        W 3311   6.936   1.818   5.127
 2315W        W 3312   6.375   5.073   3.197
 2316W        W 3313   7.636   6.668   2.387
 2317W        W 3314   6.046   2.979   1.639
 2318W        W 3315   2.842   3.989   1.144
 2319W        W 3316   1.386   7.552   7.050
 2320W        W 3317   3.608   5.888   6.603
 2321W        W 3318   3.419   3.750   6.563
 2322W        W 3319   2.886   6.345   3.040
 2323W        W 3320   6.005   6.215   4.596
 2324W        W 3321   7.345   7.023   2.639
 2325W        W 3322   1.671   1.758   0.733
 2326W        W 3323   7.587   2.137   1.851
 2327W        W 3324   1.582   1.811   6.262
 2328W        W 3325   7.780   3.028   2.000
 2329W        W 3326   5.125   4.773   4.623
 2330W        W 3327   5.635   0.753   5.704
 2331W        W 3328   6.228   5.542   5.016
 2332W        W 3329   2.889   1.781   2.951
 2333W        W 3330   6.794   5.913   0.044
 2334W        W 3331   3.796   7.309   6.534
 2335W        W 3332   3.983   2.134   7.231
 2336W        W 3333   3.016   0.458   6.063
 2337W        W 3334   4.167   2.570   2.006
 2338W        W 3335   7.516   3.142   2.407
 2339W        W 3336   6.396   3.310   4.315
 2340W        W 3337   4.122   0.905   3.715
 2341W        W 3338   6.085   6.156   1.349
 2342W        W 3339   5.216   2.380   5.041
 2343W        W 3340   3.280   5.508   2.105
 2344W        W 3341   2.648   4.766   7.577
 2345W        W 3342   6.948   5.027   1.369
 2346W        W 3343   1.845   4.741   3.263
 2347W        W 3344   7.701   6.138   2.143
 2348W        W 3345   5.475   5.899   7.382
 2349W        W 3346   1.669   4.319   6.824
 2350W        W 3347   3.161   6.835   0.380
 2351W        W 3348   0.737   3.278   4.419
 2352W        W 3349   2.713   1.525   3.347
 2353W        W 3350   6.111   6.953   5.798
 2354W        W 3351   4.017   1.925   0.666
 2355W        W 3352   2.654   5.614   5.578
 2356W        W 3353   0.277   2.676   4.247
 2357W        W 3354   0.895   0.387   2.244
 2358W        W 3355   1.253   7.497   6.562
 2359W        W 3356   2.128   1.851   0.100
 2360W        W 3357   0.079   3.171   7.051
 2361W        W 3358   2.124   1.533   0.523
 2362W        W 3359   1.473   0.910   7.377
 2363W        W 3360   7.246   2.710   7.094
 2364W        W 3361   2.497   2.480   7.671
 2365W        W 3362   0.382   2.418   2.772
 2366W        W 3363   6.748   0.224   3.354
 2367W        W 3364   7.420   6.188   3.252
 2368W        W 3365   2.365   4.870   1.741
 2369W        W 3366   2.344   5.361   3.023
 2370W        W 3367   4.668   2.637   5.943
 2371W        W 3368   5.416   0.299   1.415
 2372W        W 3369   0.714   0.625   1.251
 2373W        W 3370   6.664   1.625   4.260
 2374W        W 3371   0.735   2.176   3.923
 2375W        W 3372   5.545   7.827   1.351
 2376W        W 3373   3.785   5.977   1.942
 2377W        W 3374   6.416   1.162   0.953
 2378W        W 3375   0.616   5.456   4.477
 2379W        W 3376   4.770   0.497   1.006
 2380W        W 3377   6.089   6.457   7.037
 2381W        W 3378   4.948   4.407   4.291
 2382W        W 3379   4.021   0.525   1.183
 2383W        W 3380   6.944   0.792   2.590
 2384W        W 3381   0.982   5.379   3.104
 2385W        W 3382   7.388   7.790   0.654
 2386W        W 3383   5.809   3.002   6.001
 2387W        W 3384   1.058   6.603   5.652
 2388W        W 3385   5.939   0.068   0.571
 2389W        W 3386   5.789   1.072   3.986
 2390W        W 3387   1.422   7.697   1.736
 2391W        W 3388   0.399   6.776   7.109
 2392W        W 3389   2.339   1.238   5.069
 2393W        W 3390   0.562   5.079   2.993
 2394W        W 3391   0.048   2.331   1.604
 2395W        W 3392   5.876   3.898   5.409
 2396W        W 3393   1.970   3.726   1.046
 2397W        W 3394   7.054   3.440   6.324
 2398W        W 3395   3.318   0.495   0.563
 2399W        W 3396   4.597   5.111   0.743
 2400W        W 3397   1.876   1.648   5.698
 2401W        W 3398   6.973   7.115   6.179
 2402W        W 3399   3.531   5.749   1.316
 2403W        W 3400   4.475   6.827   5.437
 2404W        W 3401   1.503   1.777   7.208
 2405W        W 3402   6.714   0.337   0.696
 2406W        W 3403   3.046   5.043   3.254
 2407W        W 3404   3.563   3.407   1.516
 2408W        W 3405   0.611   1.831   6.543
 2409W        W 3406   1.387   1.882   1.261
 2410W        W 3407   0.260   2.685   6.922
 2411W        W 3408   1.849   1.647   2.752
 2412W        W 3409   0.535   3.169   6.935
 2413W        W 3410   1.766   0.051   7.825
 2414W        W 3411   2.558   7.414   1.910
 2415W        W 3412   0.006   4.725   1.240
 2416W        W 3413   5.667   1.540   7.806
 2417W        W 3414   5.573   7.132   2.179
 2418W        W 3415   3.560   7.734   1.169
 2419W        W 3416   7.490   5.391   5.845
 2420W        W 3417   6.955   5.023   1.962
 2421W        W 3418   2.977   3.056   5.062
 2422W        W 3419   0.345   7.358   4.519
 2423W        W 3420   6.805   5.598   0.408
 2424W        W 3421   7.418   0.932   6.603
 2425W        W 3422   6.976   0.385   5.312
 2426W        W 3423   2.811   0.996   3.451
 2427W        W 3424   0.812   1.661   2.568
 2428W        W 3425   4.363   5.885   3.957
 2429W        W 3426   3.529   3.205   7.190
 2430W        W 3427   4.083   5.937   0.694
 2431W        W 3428   5.164   0.648   5.404
 2432W        W 3429   4.376   6.682   0.408
 2433W        W 3430   1.649   6.723   0.546
 2434W        W 3431   3.604   2.147   6.891
 2435W        W 3432   1.018   7.369   0.304
 2436W        W 3433   4.168   1.601   1.884
 2437W        W 3434   1.307   0.519   7.608
 2438W        W 3435   3.632   4.877   5.559
 2439W        W 3436   1.813   1.007   5.984
 2440W        W 3437   6.402   2.012   1.215
 2441W        W 3438   6.800   6.619   4.339
 2442W        W 3439   7.448   2.473   3.769
 2443W        W 3440   2.864   7.593   2.671
 2444W        W 3441   2.968   3.367   1.743
 2445W        W 3442   5.937   4.965   0.338
 2446W        W 3443   0.337   0.353   1.144
 2447W        W 3444   0.361   1.744   7.038
 2448W        W 3445   5.133   6.178   1.843
 2449W        W 3446   5.234   1.069   5.671
 2450W        W 3447   4.977   0.911   0.710
 2451W        W 3448   6.980   4.215   0.385
 2452W        W 3449   6.265   4.616   0.497
 2453W        W 3450   0.693   2.947   6.170
 2454W        W 3451   5.365   5.581   1.020
 2455W        W 3452   5.735   7.279   4.881
 2456W        W 3453   0.565   5.424   2.066
 2457W        W 3454   0.652   7.721   6.337
 2458W        W 3455   5.180   2.272   4.394
 2459W        W 3456   6.424   0.415   7.258
 2460W        W 3457   3.671   0.622   3.031
 2461W        W 3458   7.019   2.481   5.075
 2462W        W 3459   5.348   3.596   5.300
 2463W        W 3460   2.320   0.459   7.355
 2464W        W 3461   7.126   4.794   0.006
 2465W        W 3462   2.188   4.181   5.445
 2466W        W 3463   4.994   5.218   1.131
 2467W        W 3464   2.401   7.662   2.614
 2468W        W 3465   2.496   0.292   6.236
 2469W        W 3466   2.027   6.950   7.004
 2470W        W 3467   5.732   7.474   3.623
 2471W        W 3468   7.351   5.460   0.594
 2472W        W 3469   4.112   5.575   5.922
 2473W        W 3470   6.792   3.656   4.180
 2474W        W 3471   4.207   2.737   1.044
 2475W        W 3472   3.397   7.189   6.759
 2476W        W 3473   2.364   0.408   5.367
 2477W        W 3474   1.558   7.899   6.714
 2478W        W 3475   3.922   1.346   3.645
 2479W        W 3476   7.095   3.638   1.883
 2480W        W 3477   3.593   1.170   1.919
 2481W        W 3478   2.097   5.184   6.334
 2482W        W 3479   1.702   3.344   5.098
 2483W        W 3480   5.229   7.800   4.676
 2484W        W 3481   3.425   4.146   7.431
 2485W        W 3482   4.772   6.931   2.233
 2486W        W 3483   4.005   6.727   5.289
 2487W        W 3484   6.422   1.648   5.957
 2488W        W 3485   5.718   2.274   3.918
 2489W        W 3486   1.393   2.884   0.928
 2490W        W 3487   3.058   2.220   2.966
 2491W        W 3488   0.782   4.666   5.703
 2492W        W 3489   5.589   7.199   3.195
 2493W        W 3490   5.912   6.695   5.431
 2494W        W 3491   6.210   6.125   0.825
 2495W        W 3492   4.046   4.061   1.727
 2496W        W 3493   3.890   2.319   1.078
 2497W        W 3494   5.753   5.306   4.319
 2498W        W 3495   0.509   3.820   0.246
 2499W        W 3496   4.380   7.188   1.236
 2500W        W 3497   7.499   0.765   1.802
 2501W        W 3498   2.671   1.025   0.761
 2502W        W 3499   1.379   4.820   5.301
 2503W        W 3500   0.570   7.420   0.092
 2504W        W 3501   1.402   5.197   2.583
 2505W        W 3502   5.216   4.017   4.122
 2506W        W 3503   0.181   7.594   3.207
 2507W        W 3504   0.159   5.154   6.984
 2508W        W 3505   1.156   7.763   4.077
 2509W        W 3506   6.451   5.179   0.423
 2510W        W 3507   1.880   6.525   1.425
 2511W        W 3508   4.205   2.435   0.133
 2512W        W 3509   3.630   3.316   3.366
 2513W        W 3510   2.681   5.839   6.015
 2514W        W 3511   1.880   3.799   7.031
 2515W        W 3512   1.731   4.155   1.392
 2516W        W 3513   2.871   3.415   5.350
 2517W        W 3514   0.198   5.841   5.600
 2518W        W 3515   6.189   2.807   3.303
 2519W        W 3516   0.083   7.937   2.788
 2520W        W 3517   1.427   7.550   7.745
 2521W        W 3518   7.312   3.500   2.806
 2522W        W 3519   2.446   2.640   0.448
 2523W        W 3520   5.383   6.156   3.094
 2524W        W 3521   3.305   6.341   6.872
 2525W        W 3522   5.276   7.496   3.361
 2526W        W 3523   3.836   4.279   7.706
 2527W        W 3524   2.683   4.563   2.004
 2528W        W 3525   6.428   5.386   6.414
 2529W        W 3526   4.001   7.482   5.566
 2530W        W 3527   1.161   0.759   2.502
 2531W        W 3528   4.167   6.508   5.791
 2532W        W 3529   2.758   4.150   3.712
 2533W        W 3530   0.785   0.665   6.697
 2534W        W 3531   3.474   1.128   1.159
 2535W        W 3532   1.960   1.695   1.705
 2536W        W 3533   7.498   5.787   5.313
 2537W        W 3534   3.669   1.598   1.698
 2538W        W 3535   6.566   6.957   1.403
 2539W        W 3536   2.570   5.866   3.061
 2540W        W 3537   3.566   6.301   0.415
 2541W        W 3538   5.530   4.333   4.443
 2542W        W 3539   1.692   2.810   0.502
 2543W        W 3540   3.939   6.346   6.518
 2544W        W 3541   5.311   5.943   1.339
 2545W        W 3542   4.580   5.062   2.598
 2546W        W 3543   4.269   3.752   4.336
 2547W        W 3544   2.388   1.718   5.486
 2548W        W 3545   4.038   4.363   2.595
 2549W        W 3546   1.036   2.117   4.309
 2550W        W 3547   2.507   5.349   1.600
 2551W        W 3548   5.623   3.214   3.584
 2552W        W 3549   4.043   7.312   6.964
 2553W        W 3550   4.386   1.266   6.179
 2554W        W 3551   2.690   0.122   7.272
 2555W        W 3552   5.972   0.220   7.443
 2556W        W 3553   7.751   4.845   6.838
 2557W        W 3554   0.706   3.205   5.310
 2558W        W 3555   3.636   5.054   7.798
 2559W        W 3556   2.852   5.828   2.154
 2560W        W 3557   1.063   1.896   1.708
 2561W        W 3558   2.323   3.788   5.739
 2562W        W 3559   3.992   2.676   3.703
 2563W        W 3560   6.192   1.503   5.375
 2564W        W 3561   7.272   5.695   3.401
 2565W        W 3562   1.751   3.885   6.434
 2566W        W 3563   1.524   2.580   4.421
 2567W        W 3564   3.514   5.623   2.727
 2568W        W 3565   5.407   0.866   7.115
 2569W        W 3566   7.586   2.940   2.819
 2570W        W 3567   2.941   3.943   5.629
 2571W        W 3568   6.937   2.368   2.131
 2572W        W 3569   2.582   6.225   0.985
 2573W        W 3570   5.544   1.766   3.837
 2574W        W 3571   6.619   1.096   7.711
 2575W        W 3572   2.931   3.060   2.293
 2576W        W 3573   1.123   7.188   4.267
 2577W        W 3574   2.894   2.756   0.642
 2578W        W 3575   4.837   1.539   3.198
 2579W        W 3576   6.963   6.473   7.093
 2580W        W 3577   2.811   7.005   5.059
 2581W        W 3578   5.157   6.276   1.024
 2582W        W 3579   6.893   5.071   5.193
 2583W        W 3580   3.974   5.042   3.227
 2584W        W 3581   6.913   4.042   7.070
 2585W        W 3582   7.155   6.183   7.506
 2586W        W 3583   6.335   5.809   0.360
 2587W        W 3584   4.672   6.359   0.959
 2588W        W 3585   4.944   0.346   4.545
 2589W        W 3586   7.732   1.634   1.085
 2590W        W 3587   1.000   5.871   6.157
 2591W        W 3588   3.535   5.832   7.183
 2592W        W 3589   4.285   1.510   0.373
 2593W        W 3590   0.779   4.868   6.282
 2594W        W 3591   3.260   4.584   3.289
 2595W        W 3592   6.609   2.451   5.908
 2596W        W 3593   0.387   3.370   7.539
 2597W        W 3594   1.338   5.068   4.095
 2598W        W 3595   4.436   4.952   4.700
 2599W        W 3596   5.545   2.630   5.819
 2600W        W 3597   1.404   2.020   2.185
 2601W        W 3598   5.132   2.349   6.064
 2602W        W 3599   2.704   7.130   1.074
 2603W        W 3600   0.081   4.084   7.220
 2604W        W 3601   2.168   1.323   7.575
 2605W        W 3602   1.284   0.581   5.247
 2606W        W 3603   3.938   2.545   4.599
 2607W        W 3604   1.451   5.430   3.326
 2608W        W 3605   1.892   7.075   6.058
 2609W        W 3606   3.305   6.248   3.908
 2610W        W 3607   5.047   1.882   4.796
 2611W        W 3608   7.404   4.451   6.934
 2612W        W 3609   2.725   4.810   0.696
 2613W        W 3610   7.445   5.691   7.374
 2614W        W 3611   5.602   1.385   0.253
 2615W        W 3612   5.429   3.434   7.437
 2616W        W 3613   4.773   4.473   2.067
 2617W        W 3614   6.054   0.955   2.444
 2618W        W 3615   0.097   5.353   7.504
 2619W        W 3616   6.928   6.967   5.344
 2620W        W 3617   1.612   1.833   0.224
 2621W        W 3618   4.544   4.298   2.798
 2622W        W 3619   3.662   7.024   7.143
 2623W        W 3620   7.754   2.915   4.730
 2624W        W 3621   1.880   7.500   6.780
 2625W        W 3622   3.397   2.205   7.298
 2626W        W 3623   2.638   5.580   2.656
 2627W        W 3624   6.586   7.082   1.879
 2628W        W 3625   4.848   0.703   3.729
 2629W        W 3626   3.136   6.729   2.686
 2630W        W 3627   2.348   4.055   1.148
 2631W        W 3628   0.843   4.232   3.082
 2632W        W 3629   0.961   3.154   7.178
 2633W        W 3630   0.508   2.250   4.451
 2634W        W 3631   6.508   3.033   1.689
 2635W        W 3632   4.795   2.756   5.034
 2636W        W 3633   3.099   7.176   5.902
 2637W        W 3634   5.938   5.882   3.728
 2638W        W 3635   3.253   7.249   7.232
 2639W        W 3636   2.627   2.178   0.225
 2640W        W 3637   1.843   3.847   5.953
 2641W        W 3638   1.382   2.455   5.771
 2642W        W 3639   5.668   0.645   2.311
 2643W        W 3640   4.636   2.873   3.803
 2644W        W 3641   6.603   2.841   0.006
 2645W        W 3642   0.430   5.011   7.394
 2646W        W 3643   0.116   2.283   0.522
 2647W        W 3644   0.863   5.963   2.829
 2648W        W 3645   3.848   3.998   2.857
 2649W        W 3646   3.340   2.351   1.299
 2650W        W 3647   6.099   2.473   1.796
 2651W        W 3648   7.255   5.264   7.623
 2652W        W 3649   5.504   6.736   7.705
 2653W        W 3650   5.202   0.037   2.373
 2654W        W 3651   7.401   2.665   2.003
 2655W        W 3652   4.008   3.318   0.342
 2656W        W 3653   0.901   0.212   2.792
 2657W        W 3654   3.132   4.363   5.842
 2658W        W 3655   0.499   4.755   1.322
 2659W        W 3656   5.062   5.024   3.872
 2660W        W 3657   0.352   3.961   6.317
 2661W        W 3658   4.134   6.265   2.040
 2662W        W 3659   4.965   1.280   1.954
 2663W        W 3660   3.070   7.349   3.021
 2664W        W 3661   5.671   5.060   2.273
 2665W        W 3662   4.417   5.805   3.064
 2666W        W 3663   0.752   5.058   0.935
 2667W        W 3664   4.385   6.437   5.180
 2668W        W 3665   7.356   5.329   4.073
 2669W        W 3666   4.171   6.358   1.576
 2670W        W 3667   4.412   1.606   7.945
 2671W        W 3668   0.825   0.879   2.137
 2672W        W 3669   3.461   1.513   3.831
 2673W        W 3670   7.386   1.230   2.345
 2674W        W 3671   4.391   5.286   2.990
 2675W        W 3672   0.189   2.819   5.303
 2676W        W 3673   2.350   6.068   4.704
 2677W        W 3674   4.935   0.979   7.392
 2678W        W 3675   1.185   6.849   3.728
 2679W        W 3676   4.809   7.666   4.916
 2680W        W 3677   1.055   2.595   4.830
 2681W        W 3678   5.537   3.055   4.506
 2682W        W 3679   3.793   7.193   5.104
 2683W        W 3680   2.762   6.512   1.723
 2684W        W 3681   1.038   2.119   2.606
 2685W        W 3682   4.810   3.757   3.169
 2686W        W 3683   4.510   6.921   4.274
 2687W        W 3684   2.196   0.491   2.292
 2688W        W 3685   3.878   4.063   2.239
 2689W        W 3686   4.292   3.186   5.500
 2690W        W 3687   6.480   6.745   3.036
 2691W        W 3688   6.777   7.642   3.739
 2692W        W 3689   5.611   6.297   3.644
 2693W        W 3690   1.337   5.535   6.050
 2694W        W 3691   4.681   5.141   7.481
 2695W        W 3692   6.710   6.103   0.598
 2696W        W 3693   1.903   0.933   3.265
 2697W        W 3694   6.676   2.153   7.067
 2698W        W 3695   0.618   7.271   2.359
 2699W        W 3696   2.197   2.656   1.953
 2700W        W 3697   5.077   6.977   7.837
 2701W        W 3698   5.399   2.034   2.209
 2702W        W 3699   0.097   1.645   2.686
 2703W        W 3700   1.755   2.388   2.059
 2704W        W 3701   7.252   4.129   4.787
 2705W        W 3702   6.126   7.167   3.521
 2706W        W 3703   3.113   4.473   1.188
 2707W        W 3704   1.579   4.825   6.908
 2708W        W 3705   0.923   3.950   6.474
 2709W        W 3706   6.915   2.815   1.792
 2710W        W 3707   2.529   0.223   1.072
 2711W        W 3708   2.588   6.705   3.512
 2712W        W 3709   4.226   4.744   6.801
 2713W        W 3710   6.873   1.063   0.166
 2714W        W 3711   7.156   1.072   1.734
 2715W        W 3712   1.471   7.468   0.395
 2716W        W 3713   5.913   3.291   4.130
 2717W        W 3714   0.900   0.799   4.854
 2718W        W 3715   3.628   7.147   7.756
 2719W        W 3716   4.921   4.007   5.106
 2720W        W 3717   0.275   5.333   4.146
 2721W        W 3718   1.994   4.544   1.703
 2722W        W 3719   2.027   1.735   7.303
 2723W        W 3720   6.999   5.985   7.067
 2724W        W 3721   1.845   6.662   7.885
 2725W        W 3722   6.505   4.558   6.465
 2726W        W 3723   1.938   6.318   0.345
 2727W        W 3724   3.143   5.886   6.904
 2728W        W 3725   3.971   3.809   6.387
 2729W        W 3726   6.866   6.457   0.176
 2730W        W 3727   5.227   6.506   2.741
 2731W        W 3728   2.470   7.346   3.011
 2732W        W 3729   2.774   0.661   1.141
 2733W        W 3730   1.544   1.318   6.401
 2734W        W 3731   5.895   2.844   5.518
 2735W        W 3732   4.647   1.710   2.690
 2736W        W 3733   1.334   1.755   3.481
 2737W        W 3734   7.032   0.145   7.198
 2738W        W 3735   6.726   5.555   2.871
 2739W        W 3736   4.227   7.814   2.319
 2740W        W 3737   3.500   6.059   0.857
 2741W        W 3738   0.531   2.883   2.695
 2742W        W 3739   2.778   1.518   2.149
 2743W        W 3740   3.114   0.284   1.877
 2744W        W 3741   3.112   5.929   0.543
 2745W        W 3742   6.688   4.732   0.235
 2746W        W 3743   3.198   1.667   5.606
 2747W        W 3744   1.257   7.387   3.048
 2748W        W 3745   4.750   6.637   7.774
 2749W        W 3746   0.682   6.778   0.893
 2750W        W 3747   4.266   1.732   7.505
 2751W        W 3748   0.761   6.207   5.806
 2752W        W 3749   3.093   5.717   6.377
 2753W        W 3750   1.941   2.051   5.285
 2754W        W 3751   2.812   0.644   6.459
 2755W        W 3752   1.236   2.223   0.976
 2756W        W 3753   0.268   6.081   1.350
 2757W        W 3754   7.427   2.251   1.110
 2758W        W 3755   4.780   2.316   4.770
 2759W        W 3756   3.384   0.432   5.697
 2760W        W 3757   0.300   2.243   2.072
 2761W        W 3758   7.054   2.484   6.316
 2762W        W 3759   5.241   7.376   6.419
 2763W        W 3760   7.014   4.872   5.627
 2764W        W 3761   7.304   7.566   5.508
 2765W        W 3762   5.210   6.529   3.447
 2766W        W 3763   2.503   3.328   4.440
 2767W        W 3764   3.177   7.439   0.985
 2768W        W 3765   4.221   4.088   4.778
 2769W        W 3766   5.496   6.863   5.721
 2770W        W 3767   1.265   6.610   6.551
 2771W        W 3768   2.670   1.308   1.681
 2772W        W 3769   2.553   2.281   1.779
 2773W        W 3770   7.995   4.407   0.012
 2774W        W 3771   4.557   6.856   5.957
 2775W        W 3772   7.828   4.101   1.053
 2776W        W 3773   5.467   4.236   1.979
 2777W        W 3774   2.349   3.674   6.796
 2778W        W 3775   7.588   6.424   3.991
 2779W        W 3776   1.563   2.120   1.699
 2780W        W 3777   1.312   3.725   6.570
 2781W        W 3778   3.929   1.036   1.031
 2782W        W 3779   0.733   4.972   4.744
 2783W        W 3780   6.109   1.360   2.777
 2784W        W 3781   5.725   5.373   5.069
 2785W        W 3782   4.388   3.358   3.107
 2786W        W 3783   2.069   5.553   3.951
 2787W        W 3784   1.171   3.364   5.533
 2788W        W 3785   7.431   1.347   7.389
 2789W        W 3786   2.386   1.780   2.018
 2790W        W 3787   3.438   0.478   6.425
 2791W        W 3788   2.782   3.308   4.014
 2792W        W 3789   3.462   4.041   7.919
 2793W        W 3790   3.890   6.814   6.146
 2794W        W 3791   2.451   1.045   0.253
 2795W        W 3792   0.544   5.485   5.421
 2796W        W 3793   4.037   6.694   4.344
 2797W        W 3794   3.452   6.677   6.000
 2798W        W 3795   5.394   3.290   6.177
 2799W        W 3796   7.941   6.055   5.316
 2800W        W 3797   2.360   6.946   4.741
 2801W        W 3798   6.525   1.137   3.432
 2802W        W 3799   1.075   6.621   1.856
 2803W        W 3800   0.939   4.389   0.443
 2804W        W 3801   4.791   4.159   7.194
 2805W        W 3802   5.113   3.858   7.496
 2806W        W 3803   3.123   7.930   0.926
 2807W        W 3804   5.332   0.055   0.376
 2808W        W 3805   4.658   5.974   0.586
 2809W        W 3806   7.689   6.814   0.833
 2810W        W 3807   6.705   0.463   6.850
 2811W        W 3808   7.997   0.619   5.394
 2812W        W 3809   0.723   0.353   7.704
 2813W        W 3810   3.811   7.291   6.022
 2814W        W 3811   6.703   6.035   2.894
 2815W        W 3812   4.594   5.518   1.316
 2816W        W 3813   3.435   4.136   1.398
 2817W        W 3814   3.846   3.499   2.137
 2818W        W 3815   3.785   3.769   4.648
 2819W        W 3816   5.190   1.025   7.842
 2820W        W 3817   1.686   3.701   0.635
 2821W        W 3818   5.675   0.338   0.975
 2822W        W 3819   5.453   2.644   4.223
 2823W        W 3820   3.707   1.731   7.446
 2824W        W 3821   4.641   0.832   4.653
 2825W        W 3822   2.385   2.815   7.083
 2826W        W 3823   1.796   7.496   0.951
 2827W        W 3824   7.297   4.839   4.492
 2828W        W 3825   5.885   2.144   1.156
 2829W        W 3826   2.254   3.860   6.311
 2830W        W 3827   6.126   0.209   3.525
 2831W        W 3828   4.016   6.331   0.237
 2832W        W 3829   5.477   1.529   4.653
 2833W        W 3830   4.801   5.121   1.656
 2834W        W 3831   4.336   7.618   4.809
 2835W        W 3832   3.910   0.086   4.446
 2836W        W 3833   6.373   4.905   7.174
 2837W        W 3834   1.493   0.848   2.986
 2838W        W 3835   2.774   5.314   6.002
 2839W        W 3836   7.739   7.456   0.833
 2840W        W 3837   0.761   0.940   5.366
 2841W        W 3838   3.916   3.835   3.337
 2842W        W 3839   6.796   2.900   6.122
 2843W        W 3840   6.432   6.538   1.062
 2844W        W 3841   0.220   1.001   5.359
 2845W        W 3842   0.941   3.356   0.176
 2846W        W 3843   2.667   6.644   2.569
 2847W        W 3844   3.463   1.956   2.433
 2848W        W 3845   1.844   4.701   2.684
 2849W        W 3846   4.635   5.937   0.069
 2850W        W 3847   4.637   7.129   1.814
 2851W        W 3848   4.674   3.536   2.702
 2852W        W 3849   0.630   6.261   1.041
 2853W        W 3850   5.158   3.024   3.637
 2854W        W 3851   7.152   6.783   3.943
 2855W        W 3852   3.817   5.864   3.572
 2856W        W 3853   2.049   2.758   4.720
 2857W        W 3854   5.943   0.509   3.955
 2858W        W 3855   0.722   6.187   4.321
 2859W        W 3856   7.444   6.524   6.521
 2860W        W 3857   7.135   2.193   3.270
 2861W        W 3858   2.512   7.486   5.134
 2862W        W 3859   0.387   2.810   1.919
 2863W        W 3860   7.310   4.114   7.364
 2864W        W 3861   5.206   1.422   7.569
 2865W        W 3862   6.324   0.187   4.276
 2866W        W 3863   4.173   2.329   6.114
 2867W        W 3864   6.491   6.887   2.316
 2868W        W 3865   2.445   7.618   5.628
 2869W        W 3866   6.852   3.196   4.480
 2870W        W 3867   6.506   5.397   6.891
 2871W        W 3868   7.929   3.969   3.127
 2872W        W 3869   6.516   0.948   7.197
 2873W        W 3870   2.589   0.126   4.024
 2874W        W 3871   3.821   6.636   1.848
 2875W        W 3872   7.194   2.185   2.763
 2876W        W 3873   2.995   7.608   3.578
 2877W        W 3874   5.449   3.143   4.019
 2878W        W 3875   3.265   4.502   4.341
 2879W        W 3876   5.207   5.080   7.280
 2880W        W 3877   3.690   2.010   3.009
 2881W        W 3878   5.853   0.378   1.704
 2882W        W 3879   2.337   2.456   4.426
 2883W        W 3880   4.266   5.567   3.487
 2884W        W 3881   2.282   7.631   6.474
 2885W        W 3882   6.912   6.537   1.504
 2886W        W 3883   3.824   4.257   4.527
 2887W        W 3884   4.083   6.909   0.739
 2888W        W 3885   6.551   6.337   3.385
 2889W        W 3886   4.449   3.025   0.132
 2890W        W 3887   6.007   2.740   4.951
 2891W        W 3888   7.035   2.623   3.040
 2892W        W 3889   7.060   0.992   6.108
 2893W        W 3890   2.876   2.267   4.482
 2894W        W 3891   4.297   1.238   7.592
 2895W        W 3892   5.536   1.543   0.854
 2896W        W 3893   7.716   4.618   6.419
 2897W        W 3894   0.216   2.031   1.173
 2898W        W 3895   1.534   6.012   6.275
 2899W        W 3896   0.617   3.578   1.046
 2900W        W 3897   5.772   2.082   7.512
 2901W        W 3898   3.922   3.847   5.160
 2902W        W 3899   6.164   0.806   7.529
 2903W        W 3900   6.859   6.702   3.503
 2904W        W 3901   3.814   1.110   4.758
 2905W        W 3902   7.371   1.735   2.626
 2906W        W 3903   2.099   4.948   1.359
 2907W        W 3904   1.979   2.925   5.196
 2908W        W 3905   5.512   3.226   5.652
 2909W        W 3906   3.567   2.859   4.372
 2910W        W 3907   4.035   6.915   6.663
 2911W        W 3908   4.079   2.097   6.622
 2912W        W 3909   3.885   4.587   3.527
 2913W        W 3910   5.523   0.151   3.237
 2914W        W 3911   3.007   3.151   4.463
 2915W        W 3912   2.064   7.514   6.003
 2916W        W 3913   6.560   1.717   6.454
 2917W        W 3914   5.200   2.707   0.208
 2918W        W 3915   0.317   2.426   7.364
 2919W        W 3916   0.113   2.912   1.570
 2920W        W 3917   6.683   3.322   2.064
 2921W        W 3918   4.895   6.566   0.445
 2922W        W 3919   0.468   0.338   3.131
 2923W        W 3920   1.134   0.975   3.303
 2924W        W 3921   2.335   1.946   4.406
 2925W        W 3922   3.106   0.945   3.996
 2926W        W 3923   6.253   7.750   4.413
 2927W        W 3924   6.458   6.458   7.333
 2928W        W 3925   4.661   3.696   6.931
 2929W        W 3926   4.648   5.509   2.021
 2930W        W 3927   3.393   6.711   5.111
 2931W        W 3928   1.514   2.009   6.748
 2932W        W 3929   5.649   6.180   1.642
 2933W        W 3930   0.477   4.680   7.818
 2934W        W 3931   0.556   5.789   2.392
 2935W        W 3932   6.272   7.621   7.019
 2936W        W 3933   4.463   2.393   4.383
 2937W        W 3934   6.942   4.132   2.518
 2938W        W 3935   6.941   1.260   5.189
 2939W        W 3936   0.193   4.663   2.090
 2940W        W 3937   4.621   4.786   3.974
 2941W        W 3938   7.592   0.064   3.783
 2942W        W 3939   5.298   5.955   6.066
 2943W        W 3940   1.740   0.626   7.870
 2944W        W 3941   6.875   7.217   4.084
 2945W        W 3942   7.971   4.394   3.352
 2946W        W 3943   7.875   5.553   3.502
 2947W        W 3944   7.847   5.814   1.770
 2948W        W 3945   4.836   0.853   6.407
 2949W        W 3946   1.339   0.179   6.485
 2950W        W 3947   7.211   5.433   1.623
 2951W        W 3948   3.147   5.745   5.887
 2952W        W 3949   1.844   2.214   4.828
 2953W        W 3950   3.966   4.713   7.561
 2954W        W 3951   3.231   0.502   3.725
 2955W        W 3952   3.846   1.435   2.737
 2956W        W 3953   5.974   6.562   0.828
 2957W        W 3954   1.681   2.878   2.678
 2958W        W 3955   7.958   3.791   7.836
 2959W        W 3956   3.629   0.469   7.455
 2960W        W 3957   1.492   4.113   0.441
 2961W        W 3958   4.536   6.672   1.547
 2962W        W 3959   5.346   3.719   1.866
 2963W        W 3960   6.950   4.984   4.108
 2964W        W 3961   7.187   1.433   0.056
 2965W        W 3962   2.957   1.383   7.034
 2966W        W 3963   7.131   6.392   4.615
 2967W        W 3964   6.548   6.166   1.709
 2968W        W 3965   6.677   0.579   0.207
 2969W        W 3966   7.471   6.588   2.948
 2970W        W 3967   6.740   5.774   6.680
 2971W        W 3968   1.848   4.244   7.305
 2972W        W 3969   0.741   7.139   2.825
 2973W        W 3970   7.347   5.199   5.365
 2974W        W 3971   6.027   5.222   5.402
 2975W        W 3972   0.199   4.902   2.766
 2976W        W 3973   0.103   1.926   5.540
 2977W        W 3974   3.458   1.292   6.421
 2978W        W 3975   4.924   7.144   5.798
 2979W        W 3976   1.753   3.227   0.841
 2980W        W 3977   0.011   0.347   6.489
 2981W        W 3978   5.957   1.783   5.860
 2982W        W 3979   4.403   5.594   6.848
 2983W        W 3980   0.038   1.318   7.673
 2984W        W 3981   3.051   6.778   6.892
 2985W        W 3982   1.999   6.453   4.619
 2986W        W 3983   4.345   6.035   1.101
 2987W        W 3984   5.342   1.582   2.248
 2988W        W 3985   7.672   7.282   0.382
 2989W        W 3986   1.700   0.416   3.184
 2990W        W 3987   2.213   7.194   0.983
 2991W        W 3988   6.255   0.468   0.821
 2992W        W 3989   5.005   1.973   5.732
 2993W        W 3990   0.570   4.590   2.863
 2994W        W 3991   3.708   5.585   0.030
 2995W        W 3992   5.793   5.722   6.116
 2996W        W 3993   7.382   5.652   7.936
 2997W        W 3994   4.357   3.115   6.390
 2998W        W 3995   1.294   7.133   2.618
 2999W        W 3996   7.555   5.064   6.251
 3000W        W 3997   5.725   3.392   1.641
 3001W        W 3998   5.662   0.735   5.122
 3002W        W 3999   6.843   6.020   6.234
 3003W        W 4000   4.943   2.315   2.041
 3004W        W 4001   7.351   1.161   3.073
 3005W        W 4002   4.334   2.648   4.820
 3006W        W 4003   6.690   1.098   1.598
 3007W        W 4004   3.062   3.244   3.540
 3008W        W 4005   0.854   0.066   3.326
 3009W        W 4006   0.322   1.238   0.690
 3010W        W 4007   0.511   5.687   3.208
 3011W        W 4008   7.196   4.701   4.959
 3012W        W 4009   4.532   1.628   5.858
 3013W        W 4010   7.395   1.030   4.715
 3014W        W 4011   0.802   6.497   3.760
 3015W        W 4012   3.797   1.379   0.326
 3016W        W 4013   6.368   0.883   3.857
 3017W        W 4014   6.456   0.607   3.388
 3018W        W 4015   3.023   0.525   4.222
 3019W        W 4016   0.586   1.288   5.096
 3020W        W 4017   7.395   2.613   2.506
 3021W        W 4018   3.339   1.113   0.121
 3022W        W 4019   3.579   7.078   5.626
 3023W        W 4020   1.069   6.801   5.081
 3024W        W 4021   3.610   6.196   1.519
 3025W        W 4022   1.576   7.372   4.357
 3026W        W 4023   0.269   3.535   4.534
 3027W        W 4024   7.734   4.078   4.226
 3028W        W 4025   2.917   0.717   1.827
 3029W        W 4026   7.936   0.045   3.374
 3030W        W 4027   1.687   7.264   1.384
 3031W        W 4028   6.117   7.001   4.924
 3032W        W 4029   5.654   5.918   6.928
 3033W        W 4030   3.329   4.732   1.585
 3034W        W 4031   5.061   1.881   6.200
 3035W        W 4032   5.218   7.600   6.861
 3036W        W 4033   6.056   3.713   0.443
 3037W        W 4034   4.299   4.938   0.303
 3038W        W 4035   4.535   3.129   1.100
 3039W        W 4036   6.696   7.099   4.926
 3040W        W 4037   4.623   3.627   1.139
 3041W        W 4038   4.431   3.785   3.552
 3042W        W 4039   6.150   2.592   5.916
 3043W        W 4040   7.614   2.536   4.288
 3044W        W 4041   5.584   6.238   2.162
 3045W        W 4042   3.604   3.791   1.787
 3046W        W 4043   5.474   0.937   0.396
 3047W        W 4044   4.891   3.539   4.947
 3048W        W 4045   4.135   7.007   5.707
 3049W        W 4046   2.626   5.089   2.396
 3050W        W 4047   4.911   2.512   5.450
 3051W        W 4048   5.991   7.197   0.743
 3052W        W 4049   2.566   3.027   0.228
 3053W        W 4050   1.709   2.541   5.395
 3054W        W 4051   6.757   7.780   4.432
 3055W        W 4052   7.366   2.889   4.010
 3056W        W 4053   0.833   4.579   5.175
 3057W        W 4054   0.620   4.815   3.816
 3058W        W 4055   7.425   1.828   6.828
 3059W        W 4056   5.314   5.322   3.530
 3060W        W 4057   3.620   1.601   1.189
 3061W        W 4058   6.544   4.202   4.525
 3062W        W 4059   4.818   4.703   6.672
 3063W        W 4060   7.040   2.248   7.471
 3064W        W 4061   2.837   2.853   1.729
 3065W        W 4062   6.252   2.164   6.140
 3066W        W 4063   5.157   2.816   2.233
 3067W        W 4064   1.168   2.728   7.465
 3068W        W 4065   2.291   0.105   0.592
 3069W        W 4066   5.155   7.009   2.498
 3070W        W 4067   0.816   2.248   7.328
 3071W        W 4068   0.989   7.181   5.893
 3072W        W 4069   6.030   7.377   6.199
 3073W        W 4070   4.826   7.426   5.397
 3074W        W 4071   3.940   7.340   2.486
 3075W        W 4072   1.952   6.073   6.014
 3076W        W 4073   3.271   4.436   5.319
 3077W        W 4074   5.992   7.705   1.618
 3078W        W 4075   4.662   3.089   7.772
 3079W        W 4076   4.055   2.844   4.184
 3080W        W 4077   3.670   7.549   7.346
 3081W        W 4078   3.107   4.155   6.390
 3082W        W 4079   4.697   4.268   4.767
 3083W        W 4080   7.077   2.092   3.833
 3084W        W 4081   7.484   5.038   0.358
 3085W        W 4082   0.141   1.204   3.687
 3086W        W 4083   2.468   4.585   7.133
 3087W        W 4084   6.267   2.332   7.882
 3088W        W 4085   5.195   6.807   6.129
 3089W        W 4086   1.967   3.374   7.300
 3090W        W 4087   3.565   6.423   2.238
 3091W        W 4088   0.673   7.302   0.692
 3092W        W 4089   2.490   3.171   5.611
 3093W        W 4090   7.359   0.249   4.208
 3094W        W 4091   6.546   1.892   0.675
 3095W        W 4092   1.656   6.815   3.614
 3096W        W 4093   1.911   3.441   6.744
 3097W        W 4094   3.941   3.366   5.051
 3098W        W 4095   6.840   0.130   1.750
 3099W        W 4096   7.356   0.399   6.885
 3100W        W 4097   3.847   1.849   3.887
 3101W        W 4098   4.835   6.747   6.495
 3102W        W 4099   1.709   4.198   2.667
 3103W        W 4100   2.627   0.199   2.204
 3104W        W 4101   7.965   4.383   6.936
 3105W        W 4102   4.598   7.895   6.204
 3106W        W 4103   5.238   3.845   6.036
 3107W        W 4104   6.237   5.294   4.611
 3108W        W 4105   6.464   1.507   1.426
 3109W        W 4106   0.529   2.351   0.221
 3110W        W 4107   1.870   4.466   4.112
 3111W        W 4108   4.787   4.708   5.009
 3112W        W 4109   0.538   6.621   2.092
 3113W        W 4110   2.206   2.504   5.098
 3114W        W 4111   0.199   2.664   2.385
 3115W        W 4112   2.388   2.894   3.322
 3116W        W 4113   4.762   3.283   6.702
 3117W        W 4114   0.011   6.640   2.133
 3118W        W 4115   0.424   4.086   2.870
 3119W        W 4116   2.374   0.800   3.608
 3120W        W 4117   0.866   5.105   7.626
 3121W        W 4118   6.581   2.494   1.553
 3122W        W 4119   0.096   2.253   4.014
 3123W        W 4120   7.823   6.377   6.175
 3124W        W 4121   7.460   3.734   4.470
 3125W        W 4122   2.260   6.919   2.093
 3126W        W 4123   1.655   6.398   5.748
 3127W        W 4124   4.495   2.886   6.830
 3128W        W 4125   7.342   1.875   1.439
 3129W        W 4126   6.106   5.019   0.801
 3130W        W 4127   5.124   1.674   4.270
 3131W        W 4128   2.340   2.748   1.443
 3132W        W 4129   4.225   0.833   5.986
 3133W        W 4130   0.754   7.033   5.499
 3134W        W 4131   7.116   3.414   2.333
 3135W        W 4132   1.705   6.551   6.245
 3136W        W 4133   4.222   5.349   7.994
 3137W        W 4134   3.798   1.987   2.012
 3138W        W 4135   2.484   0.855   1.479
 3139W        W 4136   2.493   0.891   5.441
 3140W        W 4137   1.903   4.814   6.494
 3141W        W 4138   1.995   1.598   5.111
 3142W        W 4139   7.211   6.690   6.082
 3143W        W 4140   7.024   6.258   6.679
 3144W        W 4141   6.236   3.846   4.679
 3145W        W 4142   0.298   7.556   0.935
 3146W        W 4143   4.997   7.370   2.187
 3147W        W 4144   3.320   5.956   4.833
 3148W        W 4145   6.219   6.928   7.135
 3149W        W 4146   6.839   7.016   2.689
 3150W        W 4147   7.820   0.238   1.153
 3151W        W 4148   0.391   1.970   7.560
 3152W        W 4149   0.704   3.334   5.832
 3153W        W 4150   0.265   3.825   1.387
 3154W        W 4151   6.967   3.881   2.949
 3155W        W 4152   7.328   3.863   2.312
 3156W        W 4153   3.482   7.576   5.630
 3157W        W 4154   4.550   0.363   7.039
 3158W        W 4155   6.257   4.506   7.463
 3159W        W 4156   6.836   0.740   3.996
 3160W        W 4157   3.410   7.503   3.382
 3161W        W 4158   2.245   3.002   6.036
 3162W        W 4159   1.736   3.761   4.586
 3163W        W 4160   1.303   6.840   4.637
 3164W        W 4161   7.561   1.375   5.985
 3165W        W 4162   5.838   1.012   6.843
 3166W        W 4163   4.542   6.351   3.727
 3167W        W 4164   0.253   3.344   5.539
 3168W        W 4165   5.395   5.350   4.708
 3169W        W 4166   1.109   6.546   2.791
 3170W        W 4167   2.838   6.456   7.571
 3171W        W 4168   7.641   0.391   2.676
 3172W        W 4169   0.761   4.388   6.603
 3173W        W 4170   2.032   4.469   1.172
 3174W        W 4171   0.823   2.017   2.145
 3175W        W 4172   6.092   0.274   1.284
 3176W        W 4173   2.090   6.952   1.632
 3177W        W 4174   0.868   6.791   2.487
 3178W        W 4175   3.458   7.616   0.611
 3179W        W 4176   6.345   4.669   4.617
 3180W        W 4177   3.035   5.330   1.266
 3181W        W 4178   5.119   0.728   4.881
 3182W        W 4179   3.309   3.119   2.635
 3183W        W 4180   7.962   3.768   6.359
 3184W        W 4181   0.510   7.646   1.389
 3185W        W 4182   5.491   2.630   6.781
 3186W        W 4183   1.843   4.437   7.851
 3187W        W 4184   0.082   3.144   2.636
 3188W        W 4185   6.792   4.912   4.668
 3189W        W 4186   6.795   1.871   3.414
 3190W        W 4187   5.071   3.741   6.542
 3191W        W 4188   2.142   2.488   6.770
 3192W        W 4189   7.326   6.667   3.432
 3193W        W 4190   4.433   2.152   2.679
 3194W        W 4191   7.477   0.812   1.332
 3195W        W 4192   3.612   2.999   2.269
 3196W        W 4193   1.716   3.265   0.226
 3197W        W 4194   6.862   1.258   6.570
 3198W        W 4195   3.182   2.071   6.049
 3199W        W 4196   7.057   2.002   0.095
 3200W        W 4197   4.712   3.321   3.477
 3201W        W 4198   3.079   5.876   1.077
 3202W        W 4199   6.481   4.268   0.208
 3203W        W 4200   3.480   3.995   5.478
 3204W        W 4201   0.999   3.896   0.369
 3205W        W 4202   1.253   6.368   6.075
 3206W        W 4203   4.509   2.980   2.716
 3207W        W 4204   7.290   4.529   1.008
 3208W        W 4205   0.824   3.061   4.860
 3209W        W 4206   5.076   2.845   2.800
 3210W        W 4207   4.312   5.065   4.226
 3211W        W 4208   2.550   3.855   5.265
 3212W        W 4209   4.730   5.030   2.123
 3213W        W 4210   5.302   4.533   3.096
 3214W        W 4211   5.460   7.517   2.475
 3215W        W 4212   5.535   5.510   2.482
 3216W        W 4213   4.717   5.174   3.466
 3217W        W 4214   7.332   1.354   6.404
 3218W        W 4215   5.425   1.206   4.254
 3219W        W 4216   7.820   1.633   1.681
 3220W        W 4217   1.015   7.828   1.460
 3221W        W 4218   1.355   5.842   7.738
 3222W        W 4219   5.179   2.493   0.708
 3223W        W 4220   4.732   0.192   6.578
 3224W        W 4221   6.118   1.947   1.675
 3225W        W 4222   5.865   0.965   1.984
   8.00000   8.00000   8.00000
