Martini system from ../2_Creating_coordinates/TYR-MET-TYR_aa.pdb
 4200
    1TYR     BB    1   4.694   3.282   5.196
    1TYR    SC1    2   4.649   3.340   4.894
    1TYR    SC2    3   4.847   3.473   4.861
    1TYR    SC3    4   4.880   3.375   4.641
    2MET     BB    5   5.050   3.218   5.092
    2MET    SC1    6   5.187   3.111   5.470
    3TYR     BB    7   5.317   3.394   5.050
    3TYR    SC1    8   5.332   3.406   4.759
    3TYR    SC2    9   5.527   3.535   4.702
    3TYR    SC3   10   5.578   3.383   4.519
    1TYR     BB   11   7.697   3.452   4.440
    1TYR    SC1   12   7.506   3.259   4.286
    1TYR    SC2   13   7.480   3.395   4.089
    1TYR    SC3   14   7.483   3.197   3.949
    2MET     BB   15   7.869   3.485   4.106
    2MET    SC1   16   8.172   3.739   4.239
    3TYR     BB   17   7.838   3.668   3.843
    3TYR    SC1   18   7.716   3.479   3.657
    3TYR    SC2   19   7.682   3.595   3.448
    3TYR    SC3   20   7.750   3.398   3.324
    1TYR     BB   21   6.876   2.957   2.614
    1TYR    SC1   22   6.701   2.709   2.686
    1TYR    SC2   23   6.873   2.585   2.800
    1TYR    SC3   24   6.712   2.507   2.964
    2MET     BB   25   7.000   2.925   2.968
    2MET    SC1   26   7.250   3.257   2.956
    3TYR     BB   27   7.232   2.761   3.122
    3TYR    SC1   28   7.076   2.554   3.256
    3TYR    SC2   29   7.230   2.416   3.379
    3TYR    SC3   30   7.074   2.403   3.565
    1TYR     BB   31   6.672   6.521   2.383
    1TYR    SC1   32   6.734   6.244   2.513
    1TYR    SC2   33   6.792   6.130   2.309
    1TYR    SC3   34   6.969   6.009   2.424
    2MET     BB   35   6.987   6.457   2.187
    2MET    SC1   36   6.983   6.818   1.980
    3TYR     BB   37   7.066   6.306   1.913
    3TYR    SC1   38   7.191   6.064   2.016
    3TYR    SC2   39   7.260   5.932   1.826
    3TYR    SC3   40   7.467   5.872   1.940
    1TYR     BB   41   1.608   4.498   5.634
    1TYR    SC1   42   1.726   4.783   5.594
    1TYR    SC2   43   1.872   4.728   5.411
    1TYR    SC3   44   1.824   4.942   5.305
    2MET     BB   45   1.584   4.497   5.257
    2MET    SC1   46   1.407   4.122   5.226
    3TYR     BB   47   1.777   4.422   5.010
    3TYR    SC1   48   1.851   4.686   4.913
    3TYR    SC2   49   1.998   4.656   4.725
    3TYR    SC3   50   1.891   4.839   4.607
    1TYR     BB   51   5.072   5.897   3.530
    1TYR    SC1   52   5.252   5.669   3.640
    1TYR    SC2   53   5.297   5.769   3.855
    1TYR    SC3   54   5.285   5.552   3.962
    2MET     BB   55   4.916   5.889   3.873
    2MET    SC1   56   4.630   6.181   3.798
    3TYR     BB   57   4.973   6.024   4.160
    3TYR    SC1   58   5.086   5.800   4.307
    3TYR    SC2   59   5.138   5.878   4.529
    3TYR    SC3   60   5.060   5.668   4.624
    1TYR     BB   61   2.881   3.749   4.209
    1TYR    SC1   62   2.919   3.572   3.955
    1TYR    SC2   63   2.705   3.620   3.855
    1TYR    SC3   64   2.806   3.622   3.634
    2MET     BB   65   2.744   4.002   3.965
    2MET    SC1   66   2.677   4.301   4.247
    3TYR     BB   67   2.459   4.069   3.832
    3TYR    SC1   68   2.497   3.966   3.562
    3TYR    SC2   69   2.292   4.005   3.440
    3TYR    SC3   70   2.419   4.067   3.242
    1TYR     BB   71   6.912   1.339   1.476
    1TYR    SC1   72   6.899   1.385   1.784
    1TYR    SC2   73   6.957   1.618   1.781
    1TYR    SC3   74   6.799   1.663   1.960
    2MET     BB   75   6.726   1.666   1.458
    2MET    SC1   76   6.688   1.672   1.044
    3TYR     BB   77   6.801   1.980   1.452
    3TYR    SC1   78   6.732   2.061   1.723
    3TYR    SC2   79   6.780   2.296   1.743
    3TYR    SC3   80   6.578   2.330   1.873
    1TYR     BB   81   3.456   4.923   2.645
    1TYR    SC1   82   3.661   4.739   2.500
    1TYR    SC2   83   3.514   4.666   2.324
    1TYR    SC3   84   3.697   4.673   2.165
    2MET     BB   85   3.369   5.037   2.297
    2MET    SC1   86   3.086   5.319   2.412
    3TYR     BB   87   3.171   4.941   2.061
    3TYR    SC1   88   3.360   4.820   1.875
    3TYR    SC2   89   3.233   4.739   1.686
    3TYR    SC3   90   3.407   4.813   1.534
    1TYR     BB   91   0.906   7.539   6.130
    1TYR    SC1   92   1.126   7.354   6.012
    1TYR    SC2   93   1.001   7.278   5.821
    1TYR    SC3   94   1.201   7.283   5.684
    2MET     BB   95   0.861   7.650   5.772
    2MET    SC1   96   0.567   7.934   5.851
    3TYR     BB   97   0.692   7.552   5.516
    3TYR    SC1   98   0.900   7.427   5.355
    3TYR    SC2   99   0.796   7.344   5.154
    3TYR    SC3  100   0.986   7.417   5.022
    1TYR     BB  101   5.879   0.683   4.888
    1TYR    SC1  102   6.136   0.806   5.014
    1TYR    SC2  103   6.029   0.907   5.204
    1TYR    SC3  104   6.219   0.850   5.345
    2MET     BB  105   5.800   0.582   5.243
    2MET    SC1  106   5.447   0.381   5.154
    3TYR     BB  107   5.655   0.715   5.498
    3TYR    SC1  108   5.884   0.781   5.666
    3TYR    SC2  109   5.800   0.884   5.866
    3TYR    SC3  110   5.964   0.764   6.000
    1TYR     BB  111   0.691   4.670   3.217
    1TYR    SC1  112   0.596   4.819   2.961
    1TYR    SC2  113   0.780   4.974   2.949
    1TYR    SC3  114   0.783   4.957   2.706
    2MET     BB  115   1.029   4.679   3.052
    2MET    SC1  116   1.229   4.467   3.349
    3TYR     BB  117   1.278   4.883   3.036
    3TYR    SC1  118   1.246   4.991   2.767
    3TYR    SC2  119   1.423   5.150   2.731
    3TYR    SC3  120   1.451   5.072   2.503
    1TYR     BB  121   5.957   7.134   5.547
    1TYR    SC1  122   6.109   7.206   5.285
    1TYR    SC2  123   6.213   7.407   5.367
    1TYR    SC3  124   6.416   7.356   5.244
    2MET     BB  125   6.282   7.224   5.716
    2MET    SC1  126   6.157   7.134   6.102
    3TYR     BB  127   6.422   7.492   5.828
    3TYR    SC1  128   6.621   7.543   5.622
    3TYR    SC2  129   6.741   7.743   5.684
    3TYR    SC3  130   6.950   7.644   5.610
    1TYR     BB  131   4.351  -0.051  -0.023
    1TYR    SC1  132   4.654   0.016   0.002
    1TYR    SC2  133   4.631   0.255   0.003
    1TYR    SC3  134   4.809   0.275   0.167
    2MET     BB  135   4.310   0.219   0.238
    2MET    SC1  136   3.897   0.181   0.275
    3TYR     BB  137   4.277   0.539   0.240
    3TYR    SC1  138   4.541   0.623   0.328
    3TYR    SC2  139   4.541   0.864   0.338
    3TYR    SC3  140   4.671   0.859   0.543
    1TYR     BB  141   3.823   7.262   5.918
    1TYR    SC1  142   4.128   7.288   5.977
    1TYR    SC2  143   4.109   7.313   6.215
    1TYR    SC3  144   4.309   7.179   6.248
    2MET     BB  145   3.824   7.032   6.217
    2MET    SC1  146   3.421   6.934   6.197
    3TYR     BB  147   3.797   7.063   6.537
    3TYR    SC1  148   4.073   7.023   6.621
    3TYR    SC2  149   4.078   7.042   6.862
    3TYR    SC3  150   4.236   6.858   6.875
    1TYR     BB  151   5.473   7.382   0.728
    1TYR    SC1  152   5.189   7.255   0.704
    1TYR    SC2  153   5.123   7.372   0.504
    1TYR    SC3  154   5.009   7.173   0.422
    2MET     BB  155   5.491   7.319   0.356
    2MET    SC1  156   5.879   7.460   0.307
    3TYR     BB  157   5.404   7.475   0.087
    3TYR    SC1  158   5.168   7.324   0.008
    3TYR    SC2  159   5.083   7.424  -0.194
    3TYR    SC3  160   5.034   7.204  -0.285
    1TYR     BB  161   1.933   2.768   7.363
    1TYR    SC1  162   1.662   2.722   7.508
    1TYR    SC2  163   1.753   2.672   7.725
    1TYR    SC3  164   1.571   2.793   7.832
    2MET     BB  165   2.022   2.963   7.673
    2MET    SC1  166   2.399   3.081   7.543
    3TYR     BB  167   2.147   2.899   7.963
    3TYR    SC1  168   1.910   2.917   8.132
    3TYR    SC2  169   1.978   2.871   8.358
    3TYR    SC3  170   1.831   3.045   8.441
    1TYR     BB  171   0.290   7.744   0.502
    1TYR    SC1  172   0.183   7.563   0.272
    1TYR    SC2  173  -0.004   7.701   0.212
    1TYR    SC3  174   0.031   7.652  -0.024
    2MET     BB  175   0.225   8.025   0.260
    2MET    SC1  176   0.367   8.328   0.507
    3TYR     BB  177  -0.024   8.213   0.180
    3TYR    SC1  178  -0.102   8.098  -0.077
    3TYR    SC2  179  -0.290   8.224  -0.158
    3TYR    SC3  180  -0.202   8.216  -0.384
    1TYR     BB  181   0.306   6.509   3.547
    1TYR    SC1  182   0.336   6.206   3.487
    1TYR    SC2  183   0.457   6.149   3.687
    1TYR    SC3  184   0.337   5.938   3.703
    2MET     BB  185   0.219   6.392   3.895
    2MET    SC1  186   0.144   6.771   4.051
    3TYR     BB  187   0.379   6.318   4.164
    3TYR    SC1  188   0.362   6.027   4.162
    3TYR    SC2  189   0.478   5.946   4.358
    3TYR    SC3  190   0.307   5.777   4.392
    1TYR     BB  191   6.948   0.903   5.494
    1TYR    SC1  192   6.910   0.661   5.686
    1TYR    SC2  193   7.144   0.611   5.716
    1TYR    SC3  194   7.106   0.558   5.950
    2MET     BB  195   7.220   1.003   5.734
    2MET    SC1  196   7.322   1.357   5.540
    3TYR     BB  197   7.534   0.939   5.774
    3TYR    SC1  198   7.526   0.758   6.002
    3TYR    SC2  199   7.753   0.695   6.052
    3TYR    SC3  200   7.709   0.709   6.290
    1TYR     BB  201   3.592   6.532   0.506
    1TYR    SC1  202   3.811   6.484   0.290
    1TYR    SC2  203   3.935   6.317   0.412
    1TYR    SC3  204   3.977   6.193   0.207
    2MET     BB  205   3.591   6.156   0.534
    2MET    SC1  206   3.287   6.135   0.818
    3TYR     BB  207   3.754   5.932   0.698
    3TYR    SC1  208   3.927   5.823   0.490
    3TYR    SC2  209   4.061   5.651   0.590
    3TYR    SC3  210   4.037   5.512   0.393
    1TYR     BB  211   7.036   5.210   5.558
    1TYR    SC1  212   6.911   5.464   5.428
    1TYR    SC2  213   7.051   5.467   5.232
    1TYR    SC3  214   6.863   5.538   5.095
    2MET     BB  215   7.019   5.069   5.209
    2MET    SC1  216   7.167   4.693   5.307
    3TYR     BB  217   7.205   5.070   4.946
    3TYR    SC1  218   7.065   5.260   4.777
    3TYR    SC2  219   7.188   5.278   4.570
    3TYR    SC3  220   6.980   5.285   4.444
    1TYR     BB  221   5.065   5.391   0.732
    1TYR    SC1  222   4.967   5.514   1.000
    1TYR    SC2  223   4.910   5.731   0.913
    1TYR    SC3  224   4.716   5.742   1.058
    2MET     BB  225   4.758   5.555   0.588
    2MET    SC1  226   4.811   5.415   0.200
    3TYR     BB  227   4.680   5.844   0.469
    3TYR    SC1  228   4.524   5.956   0.688
    3TYR    SC2  229   4.454   6.177   0.621
    3TYR    SC3  230   4.236   6.141   0.723
    1TYR     BB  231   2.786   5.189   0.725
    1TYR    SC1  232   2.812   5.250   1.029
    1TYR    SC2  233   2.672   5.447   1.031
    1TYR    SC3  234   2.580   5.384   1.247
    2MET     BB  235   2.421   5.265   0.780
    2MET    SC1  236   2.301   5.185   0.389
    3TYR     BB  237   2.232   5.526   0.780
    3TYR    SC1  238   2.188   5.564   1.065
    3TYR    SC2  239   2.047   5.758   1.091
    3TYR    SC3  240   1.923   5.648   1.269
    1TYR     BB  241   4.471   2.122   5.812
    1TYR    SC1  242   4.415   2.427   5.788
    1TYR    SC2  243   4.176   2.411   5.769
    1TYR    SC3  244   4.148   2.611   5.904
    2MET     BB  245   4.178   2.125   6.049
    2MET    SC1  246   4.196   1.722   6.147
    3TYR     BB  247   3.857   2.101   6.026
    3TYR    SC1  248   3.776   2.378   6.068
    3TYR    SC2  249   3.536   2.386   6.055
    3TYR    SC3  250   3.528   2.543   6.239
    1TYR     BB  251   0.679   3.211   4.982
    1TYR    SC1  252   0.629   3.007   5.211
    1TYR    SC2  253   0.723   3.139   5.389
    1TYR    SC3  254   0.551   3.062   5.542
    2MET     BB  255   0.553   3.464   5.231
    2MET    SC1  256   0.577   3.792   4.977
    3TYR     BB  257   0.678   3.643   5.468
    3TYR    SC1  258   0.584   3.501   5.704
    3TYR    SC2  259   0.666   3.618   5.897
    3TYR    SC3  260   0.455   3.583   6.012
    1TYR     BB  261   0.424   4.509   5.161
    1TYR    SC1  262   0.156   4.665   5.183
    1TYR    SC2  263   0.054   4.524   5.350
    1TYR    SC3  264  -0.046   4.717   5.458
    2MET     BB  265   0.406   4.499   5.538
    2MET    SC1  266   0.768   4.302   5.594
    3TYR     BB  267   0.272   4.310   5.762
    3TYR    SC1  268   0.046   4.473   5.847
    3TYR    SC2  269  -0.072   4.350   6.017
    3TYR    SC3  270  -0.107   4.554   6.144
    1TYR     BB  271   1.097   6.832   5.292
    1TYR    SC1  272   0.982   6.744   5.016
    1TYR    SC2  273   1.034   6.947   4.897
    1TYR    SC3  274   1.092   6.820   4.699
    2MET     BB  275   1.385   6.964   5.087
    2MET    SC1  276   1.610   7.097   5.411
    3TYR     BB  277   1.457   7.236   4.930
    3TYR    SC1  278   1.418   7.153   4.653
    3TYR    SC2  279   1.467   7.344   4.514
    3TYR    SC3  280   1.579   7.201   4.353
    1TYR     BB  281   0.010   7.384   3.212
    1TYR    SC1  282  -0.123   7.652   3.300
    1TYR    SC2  283  -0.057   7.642   3.531
    1TYR    SC3  284  -0.019   7.882   3.534
    2MET     BB  285   0.301   7.506   3.419
    2MET    SC1  286   0.550   7.183   3.336
    3TYR     BB  287   0.392   7.491   3.727
    3TYR    SC1  288   0.335   7.763   3.816
    3TYR    SC2  289   0.396   7.778   4.049
    3TYR    SC3  290   0.488   8.000   4.014
    1TYR     BB  291   5.606   4.099   8.315
    1TYR    SC1  292   5.437   4.328   8.189
    1TYR    SC2  293   5.614   4.426   8.058
    1TYR    SC3  294   5.459   4.471   7.876
    2MET     BB  295   5.743   4.060   7.966
    2MET    SC1  296   5.989   3.735   8.052
    3TYR     BB  297   5.981   4.189   7.790
    3TYR    SC1  298   5.832   4.365   7.613
    3TYR    SC2  299   5.991   4.475   7.469
    3TYR    SC3  300   5.841   4.452   7.280
    1TYR     BB  301   2.822   0.478   3.065
    1TYR    SC1  302   2.701   0.748   2.969
    1TYR    SC2  303   2.894   0.824   2.847
    1TYR    SC3  304   2.751   0.918   2.674
    2MET     BB  305   2.949   0.452   2.710
    2MET    SC1  306   3.126   0.078   2.754
    3TYR     BB  307   3.207   0.551   2.546
    3TYR    SC1  308   3.096   0.772   2.392
    3TYR    SC2  309   3.274   0.865   2.259
    3TYR    SC3  310   3.122   0.893   2.071
    1TYR     BB  311   3.174   1.729   1.709
    1TYR    SC1  312   3.028   1.610   1.957
    1TYR    SC2  313   2.850   1.501   1.837
    1TYR    SC3  314   2.858   1.312   1.989
    2MET     BB  315   3.114   1.389   1.558
    2MET    SC1  316   3.307   1.466   1.198
    3TYR     BB  317   2.877   1.243   1.395
    3TYR    SC1  318   2.765   1.069   1.600
    3TYR    SC2  319   2.583   0.948   1.500
    3TYR    SC3  320   2.648   0.746   1.619
    1TYR     BB  321   0.487   3.443   7.071
    1TYR    SC1  322   0.273   3.667   7.099
    1TYR    SC2  323   0.189   3.600   7.314
    1TYR    SC3  324   0.164   3.832   7.380
    2MET     BB  325   0.563   3.523   7.431
    2MET    SC1  326   0.876   3.252   7.471
    3TYR     BB  327   0.453   3.432   7.720
    3TYR    SC1  328   0.297   3.665   7.797
    3TYR    SC2  329   0.203   3.621   8.015
    3TYR    SC3  330   0.246   3.850   8.084
    1TYR     BB  331   5.961   2.526   2.217
    1TYR    SC1  332   6.236   2.598   2.344
    1TYR    SC2  333   6.180   2.538   2.570
    1TYR    SC3  334   6.402   2.449   2.606
    2MET     BB  335   5.985   2.218   2.432
    2MET    SC1  336   5.631   2.045   2.300
    3TYR     BB  337   5.908   2.135   2.734
    3TYR    SC1  338   6.170   2.132   2.861
    3TYR    SC2  339   6.138   2.072   3.092
    3TYR    SC3  340   6.337   1.933   3.087
    1TYR     BB  341   0.360   0.865   6.424
    1TYR    SC1  342   0.197   1.130   6.417
    1TYR    SC2  343   0.267   1.212   6.632
    1TYR    SC3  344   0.276   1.439   6.546
    2MET     BB  345   0.637   1.083   6.557
    2MET    SC1  346   0.922   0.781   6.582
    3TYR     BB  347   0.733   1.192   6.845
    3TYR    SC1  348   0.645   1.470   6.833
    3TYR    SC2  349   0.707   1.574   7.041
    3TYR    SC3  350   0.771   1.777   6.924
    1TYR     BB  351   4.944   6.434   7.606
    1TYR    SC1  352   4.804   6.351   7.341
    1TYR    SC2  353   4.822   6.565   7.231
    1TYR    SC3  354   4.866   6.455   7.019
    2MET     BB  355   5.192   6.603   7.378
    2MET    SC1  356   5.444   6.740   7.679
    3TYR     BB  357   5.219   6.889   7.231
    3TYR    SC1  358   5.154   6.819   6.956
    3TYR    SC2  359   5.167   7.021   6.825
    3TYR    SC3  360   5.270   6.898   6.642
    1TYR     BB  361   7.093   0.410   0.867
    1TYR    SC1  362   7.260   0.528   0.632
    1TYR    SC2  363   7.407   0.339   0.604
    1TYR    SC3  364   7.403   0.368   0.363
    2MET     BB  365   7.097   0.094   0.661
    2MET    SC1  366   6.862  -0.130   0.922
    3TYR     BB  367   7.292  -0.160   0.624
    3TYR    SC1  368   7.415  -0.101   0.367
    3TYR    SC2  369   7.568  -0.280   0.317
    3TYR    SC3  370   7.500  -0.276   0.083
    1TYR     BB  371   4.618   4.313   4.674
    1TYR    SC1  372   4.672   4.526   4.453
    1TYR    SC2  373   4.705   4.713   4.601
    1TYR    SC3  374   4.881   4.799   4.457
    2MET     BB  375   4.911   4.476   4.847
    2MET    SC1  376   4.916   4.219   5.175
    3TYR     BB  377   4.957   4.725   5.047
    3TYR    SC1  378   5.073   4.922   4.866
    3TYR    SC2  379   5.117   5.121   4.995
    3TYR    SC3  380   5.328   5.154   4.878
    1TYR     BB  381   6.804   2.884   5.231
    1TYR    SC1  382   6.752   3.042   5.494
    1TYR    SC2  383   6.818   2.868   5.646
    1TYR    SC3  384   6.920   3.031   5.794
    2MET     BB  385   7.122   2.777   5.404
    2MET    SC1  386   7.271   2.554   5.086
    3TYR     BB  387   7.213   2.543   5.605
    3TYR    SC1  388   7.235   2.689   5.856
    3TYR    SC2  389   7.302   2.532   6.026
    3TYR    SC3  390   7.451   2.697   6.124
    1TYR     BB  391   7.123   7.833   7.164
    1TYR    SC1  392   7.100   7.719   6.875
    1TYR    SC2  393   6.930   7.556   6.922
    1TYR    SC3  394   6.824   7.599   6.708
    2MET     BB  395   6.746   7.821   7.157
    2MET    SC1  396   6.691   7.985   7.536
    3TYR     BB  397   6.517   7.604   7.222
    3TYR    SC1  398   6.432   7.529   6.954
    3TYR    SC2  399   6.258   7.364   6.977
    3TYR    SC3  400   6.134   7.465   6.794
    1TYR     BB  401   5.045   4.972   6.239
    1TYR    SC1  402   4.922   5.188   6.051
    1TYR    SC2  403   4.726   5.233   6.183
    1TYR    SC3  404   4.740   5.469   6.130
    2MET     BB  405   4.950   5.212   6.514
    2MET    SC1  406   5.106   4.985   6.825
    3TYR     BB  407   4.689   5.272   6.693
    3TYR    SC1  408   4.591   5.517   6.571
    3TYR    SC2  409   4.392   5.583   6.691
    3TYR    SC3  410   4.459   5.816   6.680
    1TYR     BB  411   2.337   2.427   3.886
    1TYR    SC1  412   2.273   2.368   4.185
    1TYR    SC2  413   2.481   2.260   4.239
    1TYR    SC3  414   2.483   2.365   4.458
    2MET     BB  415   2.674   2.533   4.019
    2MET    SC1  416   2.831   2.649   3.651
    3TYR     BB  417   2.954   2.390   4.089
    3TYR    SC1  418   2.944   2.384   4.380
    3TYR    SC2  419   3.147   2.280   4.457
    3TYR    SC3  420   3.164   2.440   4.639
    1TYR     BB  421   4.482   1.360   4.436
    1TYR    SC1  422   4.526   1.504   4.708
    1TYR    SC2  423   4.754   1.569   4.669
    1TYR    SC3  424   4.716   1.781   4.781
    2MET     BB  425   4.660   1.659   4.292
    2MET    SC1  426   4.628   1.542   3.894
    3TYR     BB  427   4.965   1.747   4.237
    3TYR    SC1  428   5.008   1.940   4.451
    3TYR    SC2  429   5.234   2.021   4.431
    3TYR    SC3  430   5.161   2.247   4.485
    1TYR     BB  431   7.293   0.156   4.037
    1TYR    SC1  432   7.190   0.268   3.765
    1TYR    SC2  433   7.342   0.454   3.752
    1TYR    SC3  434   7.365   0.422   3.512
    2MET     BB  435   7.635   0.219   3.891
    2MET    SC1  436   7.849   0.070   4.214
    3TYR     BB  437   7.840   0.467   3.874
    3TYR    SC1  438   7.808   0.549   3.596
    3TYR    SC2  439   7.954   0.737   3.559
    3TYR    SC3  440   8.012   0.652   3.339
    1TYR     BB  441   4.833   7.882   4.208
    1TYR    SC1  442   4.730   7.630   4.359
    1TYR    SC2  443   4.758   7.474   4.178
    1TYR    SC3  444   4.831   7.302   4.333
    2MET     BB  445   5.104   7.651   4.086
    2MET    SC1  446   5.312   7.938   3.869
    3TYR     BB  447   5.145   7.443   3.843
    3TYR    SC1  448   5.117   7.188   3.980
    3TYR    SC2  449   5.143   7.014   3.816
    3TYR    SC3  450   5.272   6.881   3.973
    1TYR     BB  451   4.309   0.731   6.078
    1TYR    SC1  452   4.565   0.611   5.949
    1TYR    SC2  453   4.646   0.498   6.145
    1TYR    SC3  454   4.722   0.311   6.010
    2MET     BB  455   4.271   0.389   6.230
    2MET    SC1  456   3.912   0.467   6.425
    3TYR     BB  457   4.377   0.236   6.494
    3TYR    SC1  458   4.582   0.062   6.381
    3TYR    SC2  459   4.677  -0.064   6.563
    3TYR    SC3  460   4.686  -0.263   6.424
    1TYR     BB  461   6.536   3.682   5.627
    1TYR    SC1  462   6.451   3.981   5.650
    1TYR    SC2  463   6.611   4.043   5.819
    1TYR    SC3  464   6.643   4.259   5.713
    2MET     BB  465   6.887   3.821   5.633
    2MET    SC1  466   7.080   3.455   5.589
    3TYR     BB  467   7.103   3.903   5.858
    3TYR    SC1  468   7.087   4.194   5.850
    3TYR    SC2  469   7.242   4.280   6.013
    3TYR    SC3  470   7.307   4.458   5.861
    1TYR     BB  471   3.929   2.287   7.801
    1TYR    SC1  472   3.849   2.546   7.649
    1TYR    SC2  473   3.975   2.503   7.449
    1TYR    SC3  474   3.798   2.596   7.312
    2MET     BB  475   3.866   2.119   7.469
    2MET    SC1  476   3.944   1.732   7.601
    3TYR     BB  477   4.035   2.057   7.201
    3TYR    SC1  478   3.924   2.254   7.018
    3TYR    SC2  479   4.037   2.228   6.807
    3TYR    SC3  480   3.828   2.264   6.687
    1TYR     BB  481   7.198   5.376   1.529
    1TYR    SC1  482   7.154   5.466   1.823
    1TYR    SC2  483   6.913   5.460   1.820
    1TYR    SC3  484   6.909   5.372   2.047
    2MET     BB  485   6.930   5.123   1.605
    2MET    SC1  486   6.938   4.936   1.234
    3TYR     BB  487   6.608   5.112   1.599
    3TYR    SC1  488   6.544   5.128   1.883
    3TYR    SC2  489   6.304   5.122   1.904
    3TYR    SC3  490   6.322   4.979   2.100
    1TYR     BB  491   3.264   1.115   8.006
    1TYR    SC1  492   3.516   1.075   7.827
    1TYR    SC2  493   3.442   0.875   7.717
    1TYR    SC3  494   3.542   0.950   7.508
    2MET     BB  495   3.075   1.031   7.690
    2MET    SC1  496   2.696   1.080   7.853
    3TYR     BB  497   2.973   0.764   7.542
    3TYR    SC1  498   3.164   0.744   7.323
    3TYR    SC2  499   3.107   0.548   7.195
    3TYR    SC3  500   3.154   0.666   6.988
    1TYR     BB  501   6.182   2.261   4.954
    1TYR    SC1  502   6.227   2.515   4.781
    1TYR    SC2  503   6.465   2.532   4.817
    1TYR    SC3  504   6.498   2.603   4.587
    2MET     BB  505   6.494   2.135   4.784
    2MET    SC1  506   6.495   1.761   4.965
    3TYR     BB  507   6.812   2.155   4.831
    3TYR    SC1  508   6.888   2.347   4.627
    3TYR    SC2  509   7.126   2.379   4.643
    3TYR    SC3  510   7.145   2.384   4.401
    1TYR     BB  511   2.204   5.200   5.602
    1TYR    SC1  512   2.336   5.108   5.868
    1TYR    SC2  513   2.447   4.914   5.780
    1TYR    SC3  514   2.640   4.956   5.922
    2MET     BB  515   2.542   5.122   5.452
    2MET    SC1  516   2.446   5.241   5.065
    3TYR     BB  517   2.691   4.863   5.332
    3TYR    SC1  518   2.874   4.797   5.548
    3TYR    SC2  519   2.999   4.602   5.480
    3TYR    SC3  520   3.202   4.695   5.577
    1TYR     BB  521   6.458   3.051   0.747
    1TYR    SC1  522   6.622   2.786   0.734
    1TYR    SC2  523   6.563   2.728   0.508
    1TYR    SC3  524   6.788   2.645   0.468
    2MET     BB  525   6.601   3.112   0.404
    2MET    SC1  526   6.427   3.486   0.350
    3TYR     BB  527   6.523   3.036   0.100
    3TYR    SC1  528   6.716   2.826   0.042
    3TYR    SC2  529   6.677   2.752  -0.183
    3TYR    SC3  530   6.916   2.735  -0.223
    1TYR     BB  531   7.855   2.608   0.335
    1TYR    SC1  532   7.817   2.730   0.618
    1TYR    SC2  533   7.645   2.579   0.692
    1TYR    SC3  534   7.740   2.575   0.916
    2MET     BB  535   7.842   2.278   0.517
    2MET    SC1  536   7.905   2.041   0.181
    3TYR     BB  537   7.613   2.073   0.614
    3TYR    SC1  538   7.607   2.126   0.900
    3TYR    SC2  539   7.440   1.981   0.997
    3TYR    SC3  540   7.583   1.940   1.189
    1TYR     BB  541   1.862   3.493   1.604
    1TYR    SC1  542   1.992   3.638   1.846
    1TYR    SC2  543   1.787   3.705   1.953
    1TYR    SC3  544   1.883   3.662   2.172
    2MET     BB  545   1.630   3.348   1.863
    2MET    SC1  546   1.414   3.110   1.600
    3TYR     BB  547   1.354   3.435   2.006
    3TYR    SC1  548   1.449   3.516   2.269
    3TYR    SC2  549   1.257   3.586   2.397
    3TYR    SC3  550   1.346   3.478   2.595
    1TYR     BB  551   7.046   4.449   0.718
    1TYR    SC1  552   7.104   4.414   1.022
    1TYR    SC2  553   6.893   4.498   1.101
    1TYR    SC3  554   6.889   4.331   1.277
    2MET     BB  555   6.709   4.304   0.804
    2MET    SC1  556   6.561   4.304   0.415
    3TYR     BB  557   6.425   4.415   0.908
    3TYR    SC1  558   6.430   4.331   1.187
    3TYR    SC2  559   6.224   4.405   1.288
    3TYR    SC3  560   6.207   4.197   1.412
    1TYR     BB  561   3.958   4.149   7.419
    1TYR    SC1  562   3.656   4.106   7.357
    1TYR    SC2  563   3.655   4.218   7.144
    1TYR    SC3  564   3.500   4.053   7.056
    2MET     BB  565   4.007   4.049   7.059
    2MET    SC1  566   4.422   4.068   7.064
    3TYR     BB  567   4.008   4.196   6.772
    3TYR    SC1  568   3.750   4.113   6.664
    3TYR    SC2  569   3.727   4.213   6.446
    3TYR    SC3  570   3.628   4.009   6.360
    1TYR     BB  571   0.708   1.401   1.491
    1TYR    SC1  572   0.495   1.202   1.599
    1TYR    SC2  573   0.321   1.259   1.442
    1TYR    SC3  574   0.253   1.026   1.429
    2MET     BB  575   0.595   1.279   1.152
    2MET    SC1  576   0.866   1.505   0.932
    3TYR     BB  577   0.365   1.355   0.940
    3TYR    SC1  578   0.177   1.136   0.980
    3TYR    SC2  579  -0.008   1.171   0.829
    3TYR    SC3  580  -0.018   0.934   0.780
    1TYR     BB  581   1.222   1.312   3.012
    1TYR    SC1  582   1.520   1.236   3.061
    1TYR    SC2  583   1.551   1.372   3.258
    1TYR    SC3  584   1.690   1.200   3.358
    2MET     BB  585   1.188   1.265   3.385
    2MET    SC1  586   0.779   1.340   3.401
    3TYR     BB  587   1.228   1.446   3.648
    3TYR    SC1  588   1.479   1.342   3.751
    3TYR    SC2  589   1.532   1.465   3.952
    3TYR    SC3  590   1.610   1.261   4.059
    1TYR     BB  591   2.025   1.264   7.511
    1TYR    SC1  592   2.300   1.401   7.560
    1TYR    SC2  593   2.371   1.408   7.330
    1TYR    SC3  594   2.471   1.626   7.364
    2MET     BB  595   1.998   1.507   7.224
    2MET    SC1  596   1.618   1.390   7.102
    3TYR     BB  597   2.090   1.517   6.915
    3TYR    SC1  598   2.316   1.700   6.928
    3TYR    SC2  599   2.403   1.724   6.705
    3TYR    SC3  600   2.439   1.961   6.740
    1TYR     BB  601   5.158   1.237   3.145
    1TYR    SC1  602   5.204   0.932   3.185
    1TYR    SC2  603   5.003   0.889   3.310
    1TYR    SC3  604   4.974   0.676   3.197
    2MET     BB  605   4.804   1.135   3.066
    2MET    SC1  606   4.666   1.519   2.981
    3TYR     BB  607   4.533   1.080   3.232
    3TYR    SC1  608   4.520   0.789   3.224
    3TYR    SC2  609   4.323   0.721   3.344
    3TYR    SC3  610   4.278   0.549   3.179
    1TYR     BB  611   7.532   5.805   7.634
    1TYR    SC1  612   7.554   5.807   7.944
    1TYR    SC2  613   7.557   6.046   7.971
    1TYR    SC3  614   7.421   6.028   8.172
    2MET     BB  615   7.277   6.078   7.688
    2MET    SC1  616   7.180   6.127   7.286
    3TYR     BB  617   7.280   6.398   7.722
    3TYR    SC1  618   7.234   6.426   8.008
    3TYR    SC2  619   7.232   6.661   8.059
    3TYR    SC3  620   7.048   6.629   8.214
    1TYR     BB  621   1.055   1.463  -0.105
    1TYR    SC1  622   0.922   1.247  -0.286
    1TYR    SC2  623   1.074   1.068  -0.234
    1TYR    SC3  624   0.891   0.908  -0.237
    2MET     BB  625   1.073   1.185   0.148
    2MET    SC1  626   1.241   1.413   0.452
    3TYR     BB  627   1.277   0.946   0.221
    3TYR    SC1  628   1.134   0.715   0.114
    3TYR    SC2  629   1.270   0.520   0.157
    3TYR    SC3  630   1.072   0.391   0.213
    1TYR     BB  631   4.301   1.624   2.203
    1TYR    SC1  632   4.576   1.650   2.346
    1TYR    SC2  633   4.713   1.624   2.150
    1TYR    SC3  634   4.869   1.791   2.233
    2MET     BB  635   4.455   1.852   1.946
    2MET    SC1  636   4.118   1.881   1.704
    3TYR     BB  637   4.637   1.820   1.681
    3TYR    SC1  638   4.897   1.906   1.780
    3TYR    SC2  639   5.053   1.890   1.597
    3TYR    SC3  640   5.158   2.098   1.664
    1TYR     BB  641   7.142   6.618   0.949
    1TYR    SC1  642   7.077   6.380   0.759
    1TYR    SC2  643   6.848   6.350   0.827
    1TYR    SC3  644   6.783   6.301   0.598
    2MET     BB  645   6.805   6.748   0.839
    2MET    SC1  646   6.822   7.102   1.056
    3TYR     BB  647   6.499   6.711   0.931
    3TYR    SC1  648   6.397   6.537   0.720
    3TYR    SC2  649   6.165   6.494   0.768
    3TYR    SC3  650   6.110   6.512   0.532
    1TYR     BB  651   1.331   6.805   3.050
    1TYR    SC1  652   1.262   6.723   3.342
    1TYR    SC2  653   1.350   6.499   3.330
    1TYR    SC3  654   1.433   6.517   3.558
    2MET     BB  655   1.661   6.636   3.120
    2MET    SC1  656   1.833   6.721   2.751
    3TYR     BB  657   1.780   6.337   3.103
    3TYR    SC1  658   1.786   6.262   3.384
    3TYR    SC2  659   1.873   6.038   3.397
    3TYR    SC3  660   2.002   6.096   3.594
    1TYR     BB  661   5.611   0.247   2.161
    1TYR    SC1  662   5.726  -0.014   2.284
    1TYR    SC2  663   5.907   0.088   2.405
    1TYR    SC3  664   5.873  -0.066   2.590
    2MET     BB  665   5.663   0.388   2.507
    2MET    SC1  666   5.507   0.765   2.424
    3TYR     BB  667   5.903   0.527   2.670
    3TYR    SC1  668   5.985   0.310   2.846
    3TYR    SC2  669   6.167   0.391   2.981
    3TYR    SC3  670   6.079   0.276   3.176
    1TYR     BB  671   0.952   5.679   1.895
    1TYR    SC1  672   0.756   5.871   2.043
    1TYR    SC2  673   0.688   5.716   2.213
    1TYR    SC3  674   0.684   5.894   2.378
    2MET     BB  675   1.065   5.588   2.242
    2MET    SC1  676   1.363   5.323   2.123
    3TYR     BB  677   0.977   5.379   2.471
    3TYR    SC1  678   0.843   5.556   2.661
    3TYR    SC2  679   0.766   5.420   2.844
    3TYR    SC3  680   0.830   5.593   3.003
    1TYR     BB  681   1.959   6.283   5.552
    1TYR    SC1  682   1.935   6.590   5.598
    1TYR    SC2  683   1.995   6.589   5.831
    1TYR    SC3  684   2.119   6.796   5.803
    2MET     BB  685   2.276   6.316   5.752
    2MET    SC1  686   2.387   5.917   5.724
    3TYR     BB  687   2.359   6.313   6.064
    3TYR    SC1  688   2.407   6.596   6.113
    3TYR    SC2  689   2.471   6.619   6.344
    3TYR    SC3  690   2.639   6.785   6.284
    1TYR     BB  691   2.330   0.266   5.466
    1TYR    SC1  692   2.605   0.392   5.540
    1TYR    SC2  693   2.723   0.322   5.342
    1TYR    SC3  694   2.844   0.532   5.335
    2MET     BB  695   2.399   0.410   5.124
    2MET    SC1  696   2.041   0.288   4.952
    3TYR     BB  697   2.554   0.316   4.857
    3TYR    SC1  698   2.796   0.478   4.872
    3TYR    SC2  699   2.931   0.425   4.680
    3TYR    SC3  700   2.992   0.658   4.654
    1TYR     BB  701   2.278   2.545   1.693
    1TYR    SC1  702   2.516   2.705   1.572
    1TYR    SC2  703   2.648   2.717   1.773
    1TYR    SC3  704   2.852   2.688   1.645
    2MET     BB  705   2.549   2.338   1.854
    2MET    SC1  706   2.293   2.068   2.040
    3TYR     BB  707   2.725   2.351   2.124
    3TYR    SC1  708   2.982   2.440   2.021
    3TYR    SC2  709   3.133   2.457   2.208
    3TYR    SC3  710   3.314   2.364   2.075
    1TYR     BB  711   2.853   6.380   2.292
    1TYR    SC1  712   2.737   6.667   2.327
    1TYR    SC2  713   2.584   6.614   2.506
    1TYR    SC3  714   2.631   6.827   2.613
    2MET     BB  715   2.864   6.380   2.669
    2MET    SC1  716   3.037   6.003   2.707
    3TYR     BB  717   2.662   6.307   2.910
    3TYR    SC1  718   2.588   6.573   3.004
    3TYR    SC2  719   2.435   6.544   3.187
    3TYR    SC3  720   2.540   6.726   3.308
    1TYR     BB  721   4.374   5.426   2.012
    1TYR    SC1  722   4.411   5.688   2.176
    1TYR    SC2  723   4.626   5.748   2.085
    1TYR    SC3  724   4.565   5.983   2.086
    2MET     BB  725   4.501   5.633   1.724
    2MET    SC1  726   4.464   5.334   1.436
    3TYR     BB  727   4.788   5.712   1.600
    3TYR    SC1  728   4.815   5.987   1.689
    3TYR    SC2  729   5.026   6.070   1.607
    3TYR    SC3  730   4.925   6.285   1.556
    1TYR     BB  731   3.779   6.146   2.421
    1TYR    SC1  732   3.849   6.445   2.369
    1TYR    SC2  733   3.967   6.410   2.162
    1TYR    SC3  734   3.873   6.615   2.071
    2MET     BB  735   3.691   6.142   2.055
    2MET    SC1  736   3.563   5.746   2.045
    3TYR     BB  737   3.847   6.093   1.777
    3TYR    SC1  738   3.866   6.365   1.674
    3TYR    SC2  739   3.982   6.355   1.463
    3TYR    SC3  740   3.832   6.522   1.369
    1TYR     BB  741   5.752   2.438   6.002
    1TYR    SC1  742   6.022   2.545   5.890
    1TYR    SC2  743   6.164   2.448   6.059
    1TYR    SC3  744   6.334   2.399   5.893
    2MET     BB  745   5.943   2.115   6.047
    2MET    SC1  746   5.621   1.895   6.193
    3TYR     BB  747   6.130   1.983   6.274
    3TYR    SC1  748   6.394   2.015   6.154
    3TYR    SC2  749   6.555   1.922   6.308
    3TYR    SC3  750   6.680   1.825   6.123
    1TYR     BB  751   1.005   4.557   0.008
    1TYR    SC1  752   1.110   4.842  -0.059
    1TYR    SC2  753   0.926   4.964   0.039
    1TYR    SC3  754   1.079   5.135   0.120
    2MET     BB  755   0.926   4.707   0.345
    2MET    SC1  756   0.782   4.356   0.516
    3TYR     BB  757   0.680   4.867   0.478
    3TYR    SC1  758   0.787   5.138   0.486
    3TYR    SC2  759   0.618   5.280   0.583
    3TYR    SC3  760   0.787   5.402   0.708
    1TYR     BB  761   3.098   1.691   4.996
    1TYR    SC1  762   2.994   1.426   5.123
    1TYR    SC2  763   2.971   1.509   5.347
    1TYR    SC3  764   2.768   1.379   5.377
    2MET     BB  765   2.826   1.852   5.201
    2MET    SC1  766   2.893   2.239   5.067
    3TYR     BB  767   2.793   1.965   5.501
    3TYR    SC1  768   2.635   1.755   5.625
    3TYR    SC2  769   2.597   1.818   5.854
    3TYR    SC3  770   2.369   1.735   5.843
    1TYR     BB  771   2.231   3.112   4.792
    1TYR    SC1  772   2.134   3.254   4.533
    1TYR    SC2  773   2.103   3.472   4.629
    1TYR    SC3  774   2.187   3.577   4.427
    2MET     BB  775   2.440   3.422   4.838
    2MET    SC1  776   2.629   3.296   5.187
    3TYR     BB  777   2.402   3.714   4.969
    3TYR    SC1  778   2.374   3.880   4.731
    3TYR    SC2  779   2.344   4.107   4.805
    3TYR    SC3  780   2.486   4.188   4.625
    1TYR     BB  781   2.042   4.158  -0.449
    1TYR    SC1  782   1.985   3.892  -0.298
    1TYR    SC2  783   2.087   3.955  -0.089
    1TYR    SC3  784   1.912   3.840   0.034
    2MET     BB  785   1.929   4.320  -0.128
    2MET    SC1  786   1.965   4.712  -0.262
    3TYR     BB  787   2.064   4.408   0.151
    3TYR    SC1  788   1.966   4.199   0.330
    3TYR    SC2  789   2.055   4.243   0.549
    3TYR    SC3  790   1.844   4.181   0.651
    1TYR     BB  791   2.653   5.467   7.966
    1TYR    SC1  792   2.725   5.344   7.689
    1TYR    SC2  793   2.892   5.506   7.628
    1TYR    SC3  794   3.029   5.333   7.527
    2MET     BB  795   3.026   5.503   8.005
    2MET    SC1  796   3.014   5.662   8.389
    3TYR     BB  797   3.250   5.721   7.926
    3TYR    SC1  798   3.379   5.591   7.700
    3TYR    SC2  799   3.554   5.737   7.622
    3TYR    SC3  800   3.701   5.548   7.586
    1TYR     BB  801   3.515   4.623   0.293
    1TYR    SC1  802   3.706   4.459   0.475
    1TYR    SC2  803   3.543   4.298   0.550
    1TYR    SC3  804   3.709   4.121   0.542
    2MET     BB  805   3.392   4.285   0.180
    2MET    SC1  806   3.120   4.428  -0.099
    3TYR     BB  807   3.173   4.070   0.279
    3TYR    SC1  808   3.342   3.866   0.399
    3TYR    SC2  809   3.198   3.692   0.482
    3TYR    SC3  810   3.355   3.522   0.406
    1TYR     BB  811   7.825   6.990   1.922
    1TYR    SC1  812   7.544   7.094   1.836
    1TYR    SC2  813   7.510   7.241   2.024
    1TYR    SC3  814   7.403   7.405   1.881
    2MET     BB  815   7.893   7.352   2.002
    2MET    SC1  816   8.288   7.296   2.120
    3TYR     BB  817   7.850   7.548   2.254
    3TYR    SC1  818   7.623   7.707   2.164
    3TYR    SC2  819   7.570   7.864   2.339
    3TYR    SC3  820   7.528   8.038   2.174
    1TYR     BB  821   7.709   2.306   2.647
    1TYR    SC1  822   7.598   2.495   2.425
    1TYR    SC2  823   7.531   2.322   2.272
    1TYR    SC3  824   7.333   2.449   2.211
    2MET     BB  825   7.397   2.106   2.580
    2MET    SC1  826   7.467   1.817   2.871
    3TYR     BB  827   7.306   1.874   2.376
    3TYR    SC1  828   7.139   2.023   2.189
    3TYR    SC2  829   7.058   1.868   2.024
    3TYR    SC3  830   6.840   1.975   2.026
    1TYR     BB  831   5.691   5.148   3.785
    1TYR    SC1  832   5.625   5.235   4.077
    1TYR    SC2  833   5.599   5.013   4.168
    1TYR    SC3  834   5.706   5.082   4.374
    2MET     BB  835   5.913   4.892   3.951
    2MET    SC1  836   6.062   4.728   3.599
    3TYR     BB  837   5.880   4.595   4.071
    3TYR    SC1  838   5.883   4.648   4.357
    3TYR    SC2  839   5.859   4.437   4.471
    3TYR    SC3  840   6.022   4.505   4.638
    1TYR     BB  841   2.164   6.099   7.520
    1TYR    SC1  842   1.969   5.879   7.623
    1TYR    SC2  843   1.801   5.908   7.454
    1TYR    SC3  844   1.763   5.668   7.447
    2MET     BB  845   2.090   5.951   7.181
    2MET    SC1  846   2.344   6.201   6.967
    3TYR     BB  847   1.866   5.989   6.952
    3TYR    SC1  848   1.704   5.750   6.989
    3TYR    SC2  849   1.527   5.756   6.827
    3TYR    SC3  850   1.549   5.518   6.788
    1TYR     BB  851   2.085   3.812   5.759
    1TYR    SC1  852   1.808   3.926   5.842
    1TYR    SC2  853   1.769   3.776   6.026
    1TYR    SC3  854   1.667   3.955   6.155
    2MET     BB  855   2.153   3.812   6.130
    2MET    SC1  856   2.545   3.674   6.102
    3TYR     BB  857   2.104   3.611   6.378
    3TYR    SC1  858   1.881   3.740   6.512
    3TYR    SC2  859   1.824   3.606   6.704
    3TYR    SC3  860   1.787   3.806   6.837
    1TYR     BB  861   0.148   0.254   5.444
    1TYR    SC1  862   0.446   0.225   5.358
    1TYR    SC2  863   0.404   0.163   5.129
    1TYR    SC3  864   0.594   0.295   5.056
    2MET     BB  865   0.110   0.434   5.115
    2MET    SC1  866  -0.293   0.525   5.162
    3TYR     BB  867   0.052   0.353   4.808
    3TYR    SC1  868   0.316   0.384   4.690
    3TYR    SC2  869   0.298   0.328   4.456
    3TYR    SC3  870   0.446   0.511   4.398
    1TYR     BB  871   1.341   7.206   0.668
    1TYR    SC1  872   1.479   7.094   0.413
    1TYR    SC2  873   1.291   6.970   0.330
    1TYR    SC3  874   1.347   7.030   0.102
    2MET     BB  875   1.051   7.272   0.436
    2MET    SC1  876   0.806   7.450   0.721
    3TYR     BB  877   0.796   7.107   0.326
    3TYR    SC1  878   0.881   7.046   0.054
    3TYR    SC2  879   0.704   6.920  -0.050
    3TYR    SC3  880   0.737   7.041  -0.258
    1TYR     BB  881   6.480   5.626   4.682
    1TYR    SC1  882   6.529   5.820   4.921
    1TYR    SC2  883   6.548   6.021   4.790
    1TYR    SC3  884   6.429   6.146   4.961
    2MET     BB  885   6.247   5.895   4.560
    2MET    SC1  886   6.118   5.690   4.221
    3TYR     BB  887   6.270   6.164   4.383
    3TYR    SC1  888   6.250   6.369   4.589
    3TYR    SC2  889   6.266   6.583   4.480
    3TYR    SC3  890   6.094   6.673   4.626
    1TYR     BB  891   4.442   5.821   2.742
    1TYR    SC1  892   4.670   5.682   2.902
    1TYR    SC2  893   4.538   5.626   3.096
    1TYR    SC3  894   4.654   5.413   3.117
    2MET     BB  895   4.234   5.528   2.856
    2MET    SC1  896   3.888   5.639   2.655
    3TYR     BB  897   4.056   5.452   3.113
    3TYR    SC1  898   4.230   5.263   3.250
    3TYR    SC2  899   4.117   5.191   3.450
    3TYR    SC3  900   4.195   4.964   3.416
    1TYR     BB  901   5.962   6.792   2.812
    1TYR    SC1  902   5.873   7.088   2.775
    1TYR    SC2  903   5.675   7.043   2.646
    1TYR    SC3  904   5.557   7.222   2.759
    2MET     BB  905   5.597   6.731   2.884
    2MET    SC1  906   5.635   6.325   2.964
    3TYR     BB  907   5.331   6.669   2.713
    3TYR    SC1  908   5.195   6.926   2.722
    3TYR    SC2  909   4.990   6.904   2.598
    3TYR    SC3  910   4.872   7.039   2.763
    1TYR     BB  911   1.325   2.666   6.472
    1TYR    SC1  912   1.568   2.479   6.526
    1TYR    SC2  913   1.483   2.286   6.410
    1TYR    SC3  914   1.705   2.233   6.328
    2MET     BB  915   1.345   2.526   6.122
    2MET    SC1  916   1.035   2.756   5.966
    3TYR     BB  917   1.229   2.270   5.965
    3TYR    SC1  918   1.467   2.103   5.945
    3TYR    SC2  919   1.405   1.901   5.830
    3TYR    SC3  920   1.615   1.903   5.707
    1TYR     BB  921   0.078   7.205   6.093
    1TYR    SC1  922   0.159   7.441   6.280
    1TYR    SC2  923   0.000   7.395   6.455
    1TYR    SC3  924   0.163   7.456   6.623
    2MET     BB  925   0.073   7.004   6.412
    2MET    SC1  926  -0.022   6.641   6.233
    3TYR     BB  927  -0.139   6.940   6.646
    3TYR    SC1  928  -0.039   7.107   6.862
    3TYR    SC2  929  -0.184   7.076   7.051
    3TYR    SC3  930   0.007   7.078   7.202
    1TYR     BB  931   5.286   1.819  -0.217
    1TYR    SC1  932   4.996   1.719  -0.164
    1TYR    SC2  933   5.041   1.610   0.045
    1TYR    SC3  934   4.827   1.684   0.133
    2MET     BB  935   5.279   1.914   0.148
    2MET    SC1  936   5.659   2.083   0.156
    3TYR     BB  937   5.341   1.770   0.429
    3TYR    SC1  938   5.071   1.725   0.531
    3TYR    SC2  939   5.092   1.616   0.745
    3TYR    SC3  940   4.910   1.751   0.834
    1TYR     BB  941   5.370   3.722   2.949
    1TYR    SC1  942   5.510   3.834   3.204
    1TYR    SC2  943   5.335   3.778   3.360
    1TYR    SC3  944   5.500   3.718   3.528
    2MET     BB  945   5.285   3.429   3.171
    2MET    SC1  946   5.092   3.207   2.876
    3TYR     BB  947   5.051   3.351   3.377
    3TYR    SC1  948   5.186   3.386   3.633
    3TYR    SC2  949   5.028   3.333   3.807
    3TYR    SC3  950   5.201   3.220   3.934
    1TYR     BB  951   1.537   6.688   2.138
    1TYR    SC1  952   1.594   6.520   1.882
    1TYR    SC2  953   1.367   6.509   1.803
    1TYR    SC3  954   1.442   6.532   1.574
    2MET     BB  955   1.318   6.892   1.909
    2MET    SC1  956   1.204   7.171   2.195
    3TYR     BB  957   1.013   6.881   1.804
    3TYR    SC1  958   1.050   6.785   1.532
    3TYR    SC2  959   0.832   6.768   1.431
    3TYR    SC3  960   0.919   6.854   1.221
    1TYR     BB  961   5.816   0.284   6.600
    1TYR    SC1  962   5.620   0.510   6.516
    1TYR    SC2  963   5.577   0.595   6.737
    1TYR    SC3  964   5.573   0.822   6.652
    2MET     BB  965   5.964   0.549   6.824
    2MET    SC1  966   6.270   0.311   6.976
    3TYR     BB  967   5.910   0.662   7.121
    3TYR    SC1  968   5.780   0.916   7.062
    3TYR    SC2  969   5.728   1.021   7.272
    3TYR    SC3  970   5.791   1.238   7.183
    1TYR     BB  971   3.386   4.388   4.741
    1TYR    SC1  972   3.592   4.523   4.549
    1TYR    SC2  973   3.779   4.382   4.605
    1TYR    SC3  974   3.852   4.382   4.373
    2MET     BB  975   3.533   4.066   4.611
    2MET    SC1  976   3.282   3.814   4.826
    3TYR     BB  977   3.782   3.875   4.685
    3TYR    SC1  978   3.969   3.939   4.471
    3TYR    SC2  979   4.167   3.806   4.506
    3TYR    SC3  980   4.185   3.765   4.267
    1TYR     BB  981   4.085   6.480   5.543
    1TYR    SC1  982   3.851   6.300   5.641
    1TYR    SC2  983   3.847   6.151   5.452
    1TYR    SC3  984   3.801   5.962   5.597
    2MET     BB  985   4.247   6.152   5.449
    2MET    SC1  986   4.603   6.318   5.310
    3TYR     BB  987   4.245   5.954   5.195
    3TYR    SC1  988   4.078   5.737   5.294
    3TYR    SC2  989   4.061   5.572   5.119
    3TYR    SC3  990   4.080   5.393   5.281
    1TYR     BB  991   1.900   1.072   6.250
    1TYR    SC1  992   1.627   0.924   6.231
    1TYR    SC2  993   1.558   1.019   6.021
    1TYR    SC3  994   1.461   0.806   5.953
    2MET     BB  995   1.932   0.981   5.886
    2MET    SC1  996   2.310   1.146   5.833
    3TYR     BB  997   1.842   1.108   5.604
    3TYR    SC1  998   1.619   0.936   5.532
    3TYR    SC2  999   1.533   1.012   5.320
    3TYR    SC3 1000   1.501   0.783   5.247
    4W        W 1001   0.349   1.633   2.100
    5W        W 1002   5.106   7.621   1.686
    6W        W 1003   5.683   0.072   4.002
    7W        W 1004   3.484   7.360   2.147
    8W        W 1005   2.537   3.319   3.106
    9W        W 1006   3.102   5.951   3.455
   10W        W 1007   3.373   7.676   5.025
   11W        W 1008   3.635   6.731   2.684
   12W        W 1009   3.112   3.406   6.189
   13W        W 1010   3.682   2.669   5.460
   14W        W 1011   6.617   2.508   3.357
   15W        W 1012   0.928   6.753   6.162
   16W        W 1013   2.972   7.428   4.929
   17W        W 1014   7.158   3.321   3.628
   18W        W 1015   6.117   6.459   3.240
   19W        W 1016   7.256   3.126   1.905
   20W        W 1017   4.479   7.132   6.676
   21W        W 1018   3.548   2.037   0.913
   22W        W 1019   4.614   4.267   3.949
   23W        W 1020   4.204   3.886   1.026
   24W        W 1021   3.255   5.763   3.879
   25W        W 1022   2.552   6.182   3.404
   26W        W 1023   3.957   5.410   1.281
   27W        W 1024   0.331   3.089   3.924
   28W        W 1025   1.975   6.238   5.081
   29W        W 1026   5.364   2.299   5.526
   30W        W 1027   2.937   0.037   5.008
   31W        W 1028   1.453   4.276   3.805
   32W        W 1029   0.429   6.932   3.776
   33W        W 1030   2.769   0.900   5.002
   34W        W 1031   7.929   1.101   3.258
   35W        W 1032   0.180   4.842   4.244
   36W        W 1033   6.949   4.572   2.275
   37W        W 1034   7.654   6.841   5.972
   38W        W 1035   3.181   1.827   1.211
   39W        W 1036   4.354   0.291   4.467
   40W        W 1037   3.860   6.313   1.114
   41W        W 1038   3.430   4.024   2.538
   42W        W 1039   3.545   3.352   0.603
   43W        W 1040   1.440   7.637   5.136
   44W        W 1041   5.533   0.490   3.665
   45W        W 1042   2.251   0.633   4.073
   46W        W 1043   3.736   4.560   6.753
   47W        W 1044   7.851   2.797   3.902
   48W        W 1045   4.568   6.469   2.461
   49W        W 1046   5.681   4.462   4.970
   50W        W 1047   5.676   1.433   2.966
   51W        W 1048   4.819   6.067   6.364
   52W        W 1049   0.606   2.177   6.213
   53W        W 1050   4.639   0.850   7.747
   54W        W 1051   2.617   7.080   0.519
   55W        W 1052   1.180   3.272   4.125
   56W        W 1053   3.481   0.246   1.393
   57W        W 1054   6.733   1.195   3.868
   58W        W 1055   1.407   0.692   3.619
   59W        W 1056   1.602   2.575   3.865
   60W        W 1057   3.987   7.321   3.032
   61W        W 1058   1.242   7.332   1.453
   62W        W 1059   1.855   6.457   3.898
   63W        W 1060   5.253   5.959   0.677
   64W        W 1061   2.220   4.370   2.646
   65W        W 1062   0.387   1.607   7.962
   66W        W 1063   2.307   7.508   1.384
   67W        W 1064   6.442   3.540   3.828
   68W        W 1065   3.367   3.532   4.367
   69W        W 1066   4.803   0.282   2.107
   70W        W 1067   3.462   3.638   5.146
   71W        W 1068   6.292   0.807   0.486
   72W        W 1069   7.424   3.158   0.769
   73W        W 1070   5.880   5.100   7.157
   74W        W 1071   6.438   4.924   7.950
   75W        W 1072   5.937   5.515   6.608
   76W        W 1073   1.608   1.490   1.416
   77W        W 1074   0.024   0.654   7.928
   78W        W 1075   1.816   2.172   7.150
   79W        W 1076   5.173   2.658   1.706
   80W        W 1077   6.188   7.690   0.733
   81W        W 1078   7.814   7.422   5.045
   82W        W 1079   0.819   0.266   0.956
   83W        W 1080   0.750   1.601   4.399
   84W        W 1081   1.797   0.656   7.022
   85W        W 1082   4.102   4.177   4.143
   86W        W 1083   0.259   7.046   0.824
   87W        W 1084   6.056   5.766   5.520
   88W        W 1085   5.269   3.839   4.784
   89W        W 1086   7.915   3.693   5.877
   90W        W 1087   2.142   3.523   0.605
   91W        W 1088   5.241   5.224   4.271
   92W        W 1089   2.032   0.198   0.976
   93W        W 1090   5.922   4.214   1.251
   94W        W 1091   6.591   0.284   2.179
   95W        W 1092   0.546   4.305   3.982
   96W        W 1093   2.239   4.351   6.496
   97W        W 1094   0.275   5.572   1.494
   98W        W 1095   7.405   3.890   1.145
   99W        W 1096   0.394   3.751   3.247
  100W        W 1097   6.165   6.953   1.111
  101W        W 1098   2.626   4.308   5.785
  102W        W 1099   7.728   0.116   7.149
  103W        W 1100   2.906   4.490   0.247
  104W        W 1101   3.678   0.463   4.635
  105W        W 1102   3.544   5.250   4.852
  106W        W 1103   7.724   7.128   1.245
  107W        W 1104   4.011   0.806   7.564
  108W        W 1105   0.266   3.307   6.067
  109W        W 1106   0.569   2.820   0.459
  110W        W 1107   5.281   7.196   5.432
  111W        W 1108   1.384   0.021   3.146
  112W        W 1109   0.853   7.400   1.141
  113W        W 1110   2.052   0.513   6.055
  114W        W 1111   3.922   2.298   4.099
  115W        W 1112   0.770   0.423   0.434
  116W        W 1113   2.607   7.020   6.969
  117W        W 1114   2.810   7.885   0.487
  118W        W 1115   3.742   4.648   2.876
  119W        W 1116   3.497   4.702   7.377
  120W        W 1117   2.552   4.984   3.352
  121W        W 1118   2.997   4.317   1.667
  122W        W 1119   1.083   6.169   5.039
  123W        W 1120   3.990   4.941   5.149
  124W        W 1121   5.907   7.058   7.581
  125W        W 1122   6.021   3.539   3.652
  126W        W 1123   4.883   2.466   7.680
  127W        W 1124   7.565   5.936   3.753
  128W        W 1125   4.262   7.625   6.543
  129W        W 1126   7.276   5.425   2.118
  130W        W 1127   2.332   2.230   1.251
  131W        W 1128   6.511   6.696   6.796
  132W        W 1129   0.846   5.585   3.603
  133W        W 1130   3.491   7.120   0.669
  134W        W 1131   3.830   6.778   4.809
  135W        W 1132   4.149   3.775   0.503
  136W        W 1133   4.457   1.760   0.882
  137W        W 1134   3.216   4.376   2.811
  138W        W 1135   2.615   3.713   1.550
  139W        W 1136   2.818   0.909   4.513
  140W        W 1137   4.900   2.969   1.462
  141W        W 1138   4.043   3.164   1.239
  142W        W 1139   2.314   6.966   3.819
  143W        W 1140   5.000   7.333   7.344
  144W        W 1141   6.190   6.168   2.866
  145W        W 1142   0.307   4.777   6.065
  146W        W 1143   0.738   4.462   0.887
  147W        W 1144   0.564   4.822   1.825
  148W        W 1145   3.710   7.655   3.799
  149W        W 1146   7.245   2.690   7.612
  150W        W 1147   4.274   3.116   2.080
  151W        W 1148   5.786   5.809   0.667
  152W        W 1149   0.018   3.626   5.211
  153W        W 1150   7.280   1.793   5.959
  154W        W 1151   2.590   4.619   1.098
  155W        W 1152   0.505   5.802   6.467
  156W        W 1153   7.009   0.626   1.518
  157W        W 1154   1.273   0.657   6.567
  158W        W 1155   0.325   6.638   1.251
  159W        W 1156   4.013   7.430   1.986
  160W        W 1157   1.334   5.273   7.004
  161W        W 1158   5.923   0.865   0.157
  162W        W 1159   2.861   6.097   1.457
  163W        W 1160   2.192   5.954   2.613
  164W        W 1161   7.281   6.851   6.945
  165W        W 1162   3.774   1.376   4.335
  166W        W 1163   3.628   3.244   0.059
  167W        W 1164   3.678   3.672   0.904
  168W        W 1165   2.608   7.013   1.645
  169W        W 1166   6.769   5.310   0.874
  170W        W 1167   6.121   1.236   7.826
  171W        W 1168   7.235   4.956   6.943
  172W        W 1169   3.061   4.133   3.268
  173W        W 1170   3.865   0.144   3.816
  174W        W 1171   7.603   5.308   4.528
  175W        W 1172   4.545   3.698   6.398
  176W        W 1173   3.100   4.999   4.788
  177W        W 1174   5.971   3.294   4.615
  178W        W 1175   1.229   1.111   5.164
  179W        W 1176   2.950   7.365   2.256
  180W        W 1177   1.495   6.815   1.374
  181W        W 1178   0.800   1.759   3.437
  182W        W 1179   3.677   4.566   4.058
  183W        W 1180   3.060   1.377   1.006
  184W        W 1181   7.406   4.118   1.879
  185W        W 1182   4.317   0.499   1.908
  186W        W 1183   2.654   3.201   0.720
  187W        W 1184   1.345   2.618   2.437
  188W        W 1185   0.190   2.337   5.226
  189W        W 1186   2.368   0.020   4.519
  190W        W 1187   2.731   6.631   0.322
  191W        W 1188   0.428   1.998   1.685
  192W        W 1189   1.161   0.086   5.427
  193W        W 1190   5.285   7.593   5.142
  194W        W 1191   7.071   3.024   0.035
  195W        W 1192   6.196   7.507   4.890
  196W        W 1193   3.485   4.051   4.160
  197W        W 1194   2.242   4.833   0.719
  198W        W 1195   5.497   6.915   4.538
  199W        W 1196   2.980   2.287   7.647
  200W        W 1197   0.298   4.821   0.245
  201W        W 1198   3.681   2.474   1.733
  202W        W 1199   7.495   0.885   7.167
  203W        W 1200   3.843   3.473   5.560
  204W        W 1201   2.179   5.064   7.217
  205W        W 1202   4.348   6.632   6.331
  206W        W 1203   0.068   0.328   2.342
  207W        W 1204   6.524   1.236   6.236
  208W        W 1205   5.849   0.071   4.560
  209W        W 1206   7.408   6.166   4.959
  210W        W 1207   5.832   7.786   6.897
  211W        W 1208   0.445   4.265   0.421
  212W        W 1209   2.499   6.618   5.107
  213W        W 1210   0.907   7.773   0.823
  214W        W 1211   0.862   3.544   6.816
  215W        W 1212   3.565   0.598   0.972
  216W        W 1213   7.556   5.320   3.163
  217W        W 1214   7.566   2.429   7.824
  218W        W 1215   3.559   1.697   5.985
  219W        W 1216   6.247   7.451   7.550
  220W        W 1217   3.618   0.917   3.868
  221W        W 1218   1.347   4.575   1.821
  222W        W 1219   0.626   1.066   4.390
  223W        W 1220   6.745   7.306   0.052
  224W        W 1221   6.058   3.145   0.224
  225W        W 1222   2.843   6.163   4.726
  226W        W 1223   1.682   5.368   1.491
  227W        W 1224   3.664   4.151   3.681
  228W        W 1225   3.002   6.463   5.114
  229W        W 1226   7.841   5.773   4.474
  230W        W 1227   6.988   1.672   0.535
  231W        W 1228   7.317   7.251   0.731
  232W        W 1229   2.995   1.542   6.545
  233W        W 1230   5.791   3.202   6.485
  234W        W 1231   7.851   2.088   6.810
  235W        W 1232   1.768   4.770   0.877
  236W        W 1233   4.800   6.174   2.801
  237W        W 1234   2.117   1.289   4.259
  238W        W 1235   0.995   2.283   0.036
  239W        W 1236   1.393   3.615   0.220
  240W        W 1237   2.434   5.388   4.233
  241W        W 1238   2.627   0.058   3.162
  242W        W 1239   6.572   3.457   4.822
  243W        W 1240   5.078   0.628   5.918
  244W        W 1241   2.301   7.087   5.753
  245W        W 1242   1.257   2.988   3.634
  246W        W 1243   1.958   2.741   4.232
  247W        W 1244   1.209   3.848   3.757
  248W        W 1245   6.131   1.084   5.860
  249W        W 1246   6.559   4.297   3.034
  250W        W 1247   1.930   4.403   3.622
  251W        W 1248   7.497   7.503   2.703
  252W        W 1249   0.845   0.004   1.893
  253W        W 1250   3.685   4.593   1.142
  254W        W 1251   1.429   1.504   5.383
  255W        W 1252   3.548   0.353   4.147
  256W        W 1253   2.900   7.568   1.425
  257W        W 1254   2.301   1.283   3.573
  258W        W 1255   5.328   7.070   1.319
  259W        W 1256   5.922   4.946   4.852
  260W        W 1257   5.649   3.354   2.642
  261W        W 1258   3.528   6.732   6.577
  262W        W 1259   5.659   4.976   2.782
  263W        W 1260   7.641   5.803   3.075
  264W        W 1261   5.314   0.911   3.796
  265W        W 1262   5.943   4.663   6.881
  266W        W 1263   1.579   5.387   0.174
  267W        W 1264   0.395   0.226   3.592
  268W        W 1265   0.846   4.409   1.617
  269W        W 1266   7.103   5.197   3.607
  270W        W 1267   4.036   5.543   3.924
  271W        W 1268   0.108   5.363   5.096
  272W        W 1269   7.672   6.207   4.515
  273W        W 1270   4.218   6.098   3.471
  274W        W 1271   5.229   4.522   7.471
  275W        W 1272   1.375   3.430   1.164
  276W        W 1273   7.044   7.394   2.370
  277W        W 1274   1.383   5.875   3.643
  278W        W 1275   5.422   3.768   7.884
  279W        W 1276   3.025   4.593   7.244
  280W        W 1277   4.435   3.823   1.570
  281W        W 1278   5.675   6.250   7.689
  282W        W 1279   2.804   4.582   3.176
  283W        W 1280   4.342   0.358   3.837
  284W        W 1281   4.244   0.539   5.236
  285W        W 1282   3.775   3.827   1.334
  286W        W 1283   1.353   5.632   0.531
  287W        W 1284   0.524   2.258   3.431
  288W        W 1285   2.563   2.588   2.961
  289W        W 1286   3.545   7.783   0.149
  290W        W 1287   5.677   6.043   5.750
  291W        W 1288   1.748   1.354   0.943
  292W        W 1289   1.742   1.862   7.722
  293W        W 1290   0.114   5.180   2.143
  294W        W 1291   6.784   5.617   3.362
  295W        W 1292   2.731   4.151   6.901
  296W        W 1293   0.792   5.281   1.646
  297W        W 1294   0.422   5.714   0.978
  298W        W 1295   4.647   7.242   4.709
  299W        W 1296   7.841   4.210   2.193
  300W        W 1297   4.992   0.675   6.877
  301W        W 1298   2.805   1.992   3.466
  302W        W 1299   6.557   0.721   1.160
  303W        W 1300   1.979   2.104   6.411
  304W        W 1301   3.150   3.798   1.634
  305W        W 1302   4.588   6.991   0.788
  306W        W 1303   4.848   2.907   0.667
  307W        W 1304   2.481   2.362   6.005
  308W        W 1305   1.758   0.699   6.406
  309W        W 1306   6.416   6.936   7.574
  310W        W 1307   7.141   6.937   4.678
  311W        W 1308   4.635   4.146   6.694
  312W        W 1309   2.712   4.367   2.746
  313W        W 1310   5.425   3.722   2.390
  314W        W 1311   6.697   4.696   3.271
  315W        W 1312   1.617   1.242   2.597
  316W        W 1313   2.148   5.449   2.572
  317W        W 1314   7.241   7.263   5.065
  318W        W 1315   2.191   7.073   3.340
  319W        W 1316   6.899   1.528   7.660
  320W        W 1317   0.805   4.184   0.003
  321W        W 1318   0.520   2.210   6.938
  322W        W 1319   2.932   0.801   0.370
  323W        W 1320   2.837   5.883   7.389
  324W        W 1321   7.173   3.649   0.718
  325W        W 1322   6.816   7.096   0.521
  326W        W 1323   4.889   1.207   6.940
  327W        W 1324   6.705   3.832   0.546
  328W        W 1325   5.003   2.040   3.247
  329W        W 1326   3.324   5.958   2.361
  330W        W 1327   6.530   3.909   6.745
  331W        W 1328   0.997   2.101   5.539
  332W        W 1329   1.283   4.261   2.374
  333W        W 1330   2.328   1.500   4.662
  334W        W 1331   6.342   1.268   6.690
  335W        W 1332   2.547   1.040   6.531
  336W        W 1333   3.382   1.587   2.877
  337W        W 1334   2.768   3.633   7.114
  338W        W 1335   7.273   3.416   1.170
  339W        W 1336   5.999   6.606   7.491
  340W        W 1337   1.627   0.717   2.411
  341W        W 1338   5.570   2.933   1.837
  342W        W 1339   5.911   3.237   3.193
  343W        W 1340   4.981   5.828   7.675
  344W        W 1341   4.575   2.868   4.304
  345W        W 1342   0.994   4.818   1.317
  346W        W 1343   4.481   7.411   7.134
  347W        W 1344   2.646   5.930   6.748
  348W        W 1345   6.496   1.454   1.899
  349W        W 1346   5.963   5.419   1.042
  350W        W 1347   5.321   1.660   3.240
  351W        W 1348   6.156   3.098   3.705
  352W        W 1349   4.323   2.836   0.552
  353W        W 1350   0.886   5.340   6.281
  354W        W 1351   0.306   1.856   4.245
  355W        W 1352   7.326   2.967   4.964
  356W        W 1353   4.214   5.143   5.601
  357W        W 1354   5.152   1.309   0.457
  358W        W 1355   4.337   3.721   2.079
  359W        W 1356   2.805   0.133   5.663
  360W        W 1357   2.413   5.702   5.113
  361W        W 1358   2.193   3.020   0.659
  362W        W 1359   3.073   3.541   4.860
  363W        W 1360   7.972   4.131   5.298
  364W        W 1361   6.039   6.093   7.368
  365W        W 1362   7.456   5.787   1.422
  366W        W 1363   5.332   1.206   5.178
  367W        W 1364   7.500   3.732   7.005
  368W        W 1365   4.862   0.087   1.302
  369W        W 1366   6.397   4.930   5.059
  370W        W 1367   0.573   6.303   0.535
  371W        W 1368   1.921   5.198   1.019
  372W        W 1369   2.253   4.285   2.069
  373W        W 1370   0.523   0.084   2.524
  374W        W 1371   7.573   0.969   0.532
  375W        W 1372   5.668   7.368   6.679
  376W        W 1373   0.892   2.859   2.310
  377W        W 1374   1.603   4.785   3.774
  378W        W 1375   3.928   5.259   4.369
  379W        W 1376   6.265   3.953   2.164
  380W        W 1377   3.423   1.148   3.498
  381W        W 1378   0.241   3.307   1.316
  382W        W 1379   0.825   0.474   5.265
  383W        W 1380   5.184   4.770   1.939
  384W        W 1381   5.576   7.464   1.775
  385W        W 1382   1.752   2.802   3.190
  386W        W 1383   0.058   2.030   4.773
  387W        W 1384   2.681   4.176   7.386
  388W        W 1385   0.707   7.542   3.167
  389W        W 1386   6.379   5.864   6.323
  390W        W 1387   1.168   3.771   4.365
  391W        W 1388   2.601   7.345   6.069
  392W        W 1389   0.563   6.180   0.034
  393W        W 1390   0.615   1.893   5.790
  394W        W 1391   3.021   6.917   3.273
  395W        W 1392   2.204   3.416   0.101
  396W        W 1393   7.823   1.835   5.082
  397W        W 1394   6.666   3.551   7.171
  398W        W 1395   4.694   0.868   1.349
  399W        W 1396   3.953   1.633   4.995
  400W        W 1397   6.228   2.115   7.354
  401W        W 1398   0.166   5.804   4.064
  402W        W 1399   2.339   0.609   0.742
  403W        W 1400   3.541   1.808   0.365
  404W        W 1401   6.492   5.083   5.554
  405W        W 1402   0.225   6.259   7.246
  406W        W 1403   0.928   1.731   3.962
  407W        W 1404   7.648   1.659   2.228
  408W        W 1405   2.496   1.095   3.080
  409W        W 1406   0.595   3.849   4.288
  410W        W 1407   6.042   1.134   3.217
  411W        W 1408   4.477   3.244   7.145
  412W        W 1409   2.804   5.000   7.134
  413W        W 1410   5.180   3.234   1.965
  414W        W 1411   0.566   6.664   5.754
  415W        W 1412   3.374   6.613   3.132
  416W        W 1413   0.731   3.864   1.693
  417W        W 1414   7.213   1.344   6.940
  418W        W 1415   0.737   2.109   1.248
  419W        W 1416   6.718   4.841   6.852
  420W        W 1417   4.272   7.015   3.315
  421W        W 1418   1.687   4.864   5.992
  422W        W 1419   5.310   2.779   5.362
  423W        W 1420   2.167   5.026   7.731
  424W        W 1421   6.254   6.507   4.976
  425W        W 1422   0.761   1.889   0.418
  426W        W 1423   2.568   3.468   6.353
  427W        W 1424   7.669   4.637   0.673
  428W        W 1425   4.450   6.418   4.240
  429W        W 1426   4.368   6.712   2.046
  430W        W 1427   4.959   3.917   5.607
  431W        W 1428   6.680   1.515   3.000
  432W        W 1429   1.139   0.905   1.385
  433W        W 1430   5.608   4.952   0.798
  434W        W 1431   3.147   0.050   4.128
  435W        W 1432   1.467   5.549   4.738
  436W        W 1433   2.707   0.257   1.550
  437W        W 1434   7.276   2.491   0.280
  438W        W 1435   1.401   0.343   7.024
  439W        W 1436   1.652   5.783   5.755
  440W        W 1437   3.212   4.240   6.956
  441W        W 1438   6.014   3.418   5.597
  442W        W 1439   2.204   1.607   1.031
  443W        W 1440   5.933   7.313   7.178
  444W        W 1441   0.423   3.184   2.254
  445W        W 1442   0.360   0.848   7.618
  446W        W 1443   1.492   2.380   7.774
  447W        W 1444   5.842   1.869   0.596
  448W        W 1445   6.914   3.731   3.693
  449W        W 1446   6.665   6.398   5.403
  450W        W 1447   7.928   0.867   6.951
  451W        W 1448   4.297   1.466   3.131
  452W        W 1449   2.757   4.564   4.506
  453W        W 1450   1.409   7.471   2.213
  454W        W 1451   1.523   3.008   5.442
  455W        W 1452   4.673   2.041   7.892
  456W        W 1453   2.859   1.881   4.174
  457W        W 1454   6.652   7.714   3.202
  458W        W 1455   2.427   3.180   2.033
  459W        W 1456   6.265   7.347   0.304
  460W        W 1457   2.646   2.891   3.764
  461W        W 1458   1.299   3.182   0.545
  462W        W 1459   1.273   1.200   2.197
  463W        W 1460   7.431   1.580   4.839
  464W        W 1461   7.412   3.771   5.062
  465W        W 1462   0.548   4.539   4.546
  466W        W 1463   0.391   3.199   3.101
  467W        W 1464   4.071   4.230   5.690
  468W        W 1465   7.042   2.932   0.499
  469W        W 1466   4.685   3.375   1.712
  470W        W 1467   2.995   7.596   5.450
  471W        W 1468   4.314   4.547   4.889
  472W        W 1469   6.508   7.541   1.735
  473W        W 1470   4.688   3.956   2.447
  474W        W 1471   6.934   7.511   5.920
  475W        W 1472   5.246   2.577   1.201
  476W        W 1473   0.639   4.149   1.266
  477W        W 1474   6.566   3.867   3.310
  478W        W 1475   2.219   2.691   5.617
  479W        W 1476   1.810   1.959   3.307
  480W        W 1477   2.006   2.279   5.823
  481W        W 1478   5.703   3.147   5.174
  482W        W 1479   6.534   2.133   3.736
  483W        W 1480   2.697   7.460   4.056
  484W        W 1481   4.633   0.642   4.197
  485W        W 1482   3.496   3.235   4.749
  486W        W 1483   2.983   1.256   3.038
  487W        W 1484   5.067   6.904   3.109
  488W        W 1485   0.177   6.841   5.469
  489W        W 1486   0.100   5.858   0.041
  490W        W 1487   5.120   6.472   2.237
  491W        W 1488   7.425   1.891   3.543
  492W        W 1489   3.346   3.366   2.062
  493W        W 1490   4.943   3.212   7.333
  494W        W 1491   1.813   1.775   4.665
  495W        W 1492   1.215   4.687   0.844
  496W        W 1493   3.028   7.407   0.527
  497W        W 1494   7.582   0.005   3.042
  498W        W 1495   7.277   4.794   2.733
  499W        W 1496   0.830   1.719   7.354
  500W        W 1497   5.349   4.628   4.057
  501W        W 1498   4.353   3.959   0.011
  502W        W 1499   4.966   2.867   6.984
  503W        W 1500   1.262   3.033   5.054
  504W        W 1501   6.613   7.421   6.380
  505W        W 1502   4.620   3.907   0.719
  506W        W 1503   7.222   7.579   7.508
  507W        W 1504   7.792   6.749   0.286
  508W        W 1505   7.772   0.232   5.642
  509W        W 1506   5.982   5.966   5.055
  510W        W 1507   6.420   7.919   0.320
  511W        W 1508   5.940   6.054   0.239
  512W        W 1509   4.342   2.977   1.604
  513W        W 1510   2.628   3.594   2.729
  514W        W 1511   4.653   2.617   1.232
  515W        W 1512   7.318   0.141   6.262
  516W        W 1513   6.209   0.931   1.592
  517W        W 1514   0.889   5.918   0.791
  518W        W 1515   6.479   5.093   4.224
  519W        W 1516   4.184   0.803   1.556
  520W        W 1517   1.283   4.695   6.268
  521W        W 1518   1.247   6.209   5.510
  522W        W 1519   4.110   1.383   5.752
  523W        W 1520   4.118   4.271   1.307
  524W        W 1521   6.839   5.566   1.290
  525W        W 1522   4.773   7.483   0.258
  526W        W 1523   1.712   6.500   6.804
  527W        W 1524   7.635   5.228   2.470
  528W        W 1525   0.324   3.610   2.813
  529W        W 1526   0.224   3.742   0.793
  530W        W 1527   0.717   3.486   0.585
  531W        W 1528   3.835   1.255   7.451
  532W        W 1529   3.187   0.885   5.582
  533W        W 1530   5.502   3.440   1.015
  534W        W 1531   0.033   4.036   6.689
  535W        W 1532   7.723   6.265   7.387
  536W        W 1533   5.805   4.808   1.212
  537W        W 1534   6.441   5.309   7.423
  538W        W 1535   5.144   5.357   7.685
  539W        W 1536   7.520   2.191   7.253
  540W        W 1537   4.744   5.516   5.387
  541W        W 1538   0.035   2.034   2.958
  542W        W 1539   3.375   4.107   0.903
  543W        W 1540   3.017   5.364   3.640
  544W        W 1541   0.318   4.358   1.668
  545W        W 1542   2.542   1.777   2.588
  546W        W 1543   5.808   0.551   0.559
  547W        W 1544   7.877   2.039   7.607
  548W        W 1545   5.204   3.543   1.426
  549W        W 1546   2.582   7.435   4.585
  550W        W 1547   1.677   2.861   5.916
  551W        W 1548   2.080   0.539   4.640
  552W        W 1549   4.426   0.669   2.879
  553W        W 1550   4.071   2.436   0.616
  554W        W 1551   2.536   0.558   5.816
  555W        W 1552   7.991   5.633   6.639
  556W        W 1553   3.832   7.376   0.280
  557W        W 1554   2.265   7.063   5.248
  558W        W 1555   7.324   0.298   1.252
  559W        W 1556   2.160   2.927   2.892
  560W        W 1557   1.774   5.224   7.423
  561W        W 1558   4.399   0.978   5.528
  562W        W 1559   4.993   5.267   2.821
  563W        W 1560   5.627   3.686   6.405
  564W        W 1561   7.259   2.940   1.332
  565W        W 1562   2.877   6.251   5.587
  566W        W 1563   1.227   1.237   0.955
  567W        W 1564   3.396   7.434   1.537
  568W        W 1565   1.236   7.565   4.667
  569W        W 1566   3.495   4.730   6.042
  570W        W 1567   5.740   1.246   1.262
  571W        W 1568   3.007   1.081   6.393
  572W        W 1569   6.796   4.395   4.888
  573W        W 1570   3.604   3.499   6.074
  574W        W 1571   5.221   1.061   6.166
  575W        W 1572   4.930   6.797   1.256
  576W        W 1573   2.289   3.106   4.016
  577W        W 1574   1.186   5.085   5.902
  578W        W 1575   1.348   2.195   4.747
  579W        W 1576   5.230   6.346   6.416
  580W        W 1577   7.176   0.904   7.736
  581W        W 1578   2.805   4.665   6.760
  582W        W 1579   6.100   1.214   7.252
  583W        W 1580   6.460   0.201   5.175
  584W        W 1581   7.781   7.076   4.202
  585W        W 1582   5.101   1.691   1.163
  586W        W 1583   6.234   3.081   6.213
  587W        W 1584   6.922   4.502   4.361
  588W        W 1585   2.383   7.524   6.951
  589W        W 1586   2.800   6.112   3.806
  590W        W 1587   3.158   2.409   3.475
  591W        W 1588   7.563   0.563   0.850
  592W        W 1589   5.289   4.868   1.395
  593W        W 1590   0.424   7.201   6.711
  594W        W 1591   0.152   2.032   6.016
  595W        W 1592   7.587   4.028   2.743
  596W        W 1593   2.291   0.858   7.014
  597W        W 1594   5.202   0.039   1.816
  598W        W 1595   3.216   2.553   6.908
  599W        W 1596   4.125   0.137   4.980
  600W        W 1597   4.016   0.967   6.795
  601W        W 1598   0.603   5.519   7.381
  602W        W 1599   6.426   3.661   7.654
  603W        W 1600   1.500   7.354   5.865
  604W        W 1601   6.105   3.523   5.085
  605W        W 1602   1.396   5.128   1.171
  606W        W 1603   5.814   6.463   4.070
  607W        W 1604   1.918   1.408   3.199
  608W        W 1605   7.084   0.246   7.757
  609W        W 1606   7.535   3.451   6.572
  610W        W 1607   4.761   4.458   7.624
  611W        W 1608   5.476   5.506   3.062
  612W        W 1609   7.743   2.535   6.986
  613W        W 1610   3.772   5.184   5.908
  614W        W 1611   0.942   3.312   3.162
  615W        W 1612   0.700   2.625   7.709
  616W        W 1613   7.696   4.389   5.619
  617W        W 1614   3.732   1.920   4.338
  618W        W 1615   2.483   6.525   4.522
  619W        W 1616   5.389   2.908   7.218
  620W        W 1617   6.666   1.431   7.086
  621W        W 1618   7.727   7.693   5.756
  622W        W 1619   6.520   5.539   5.383
  623W        W 1620   3.053   0.148   6.574
  624W        W 1621   3.165   0.879   0.806
  625W        W 1622   2.648   2.429   4.900
  626W        W 1623   4.099   7.265   7.501
  627W        W 1624   7.142   7.191   3.641
  628W        W 1625   5.643   4.973   1.712
  629W        W 1626   3.923   5.851   2.934
  630W        W 1627   1.047   0.730   0.842
  631W        W 1628   3.634   0.799   1.537
  632W        W 1629   3.739   6.172   4.685
  633W        W 1630   2.692   1.409   4.344
  634W        W 1631   0.747   7.548   4.601
  635W        W 1632   7.994   6.359   3.127
  636W        W 1633   4.654   7.471   0.948
  637W        W 1634   3.264   6.732   4.230
  638W        W 1635   5.444   5.721   6.519
  639W        W 1636   1.008   3.978   2.077
  640W        W 1637   6.891   6.336   5.858
  641W        W 1638   5.465   1.586   6.276
  642W        W 1639   1.614   5.297   3.790
  643W        W 1640   1.659   3.056   1.384
  644W        W 1641   1.408   3.908   7.214
  645W        W 1642   1.016   3.415   6.237
  646W        W 1643   5.187   5.137   2.376
  647W        W 1644   4.676   2.608   2.394
  648W        W 1645   1.525   2.450   0.197
  649W        W 1646   0.843   5.491   6.891
  650W        W 1647   7.895   6.664   1.385
  651W        W 1648   6.962   5.885   4.657
  652W        W 1649   4.583   7.146   2.891
  653W        W 1650   1.597   5.021   4.554
  654W        W 1651   4.845   3.903   4.494
  655W        W 1652   3.044   4.869   6.206
  656W        W 1653   7.135   0.546   6.432
  657W        W 1654   4.333   6.850   4.869
  658W        W 1655   2.900   5.411   5.076
  659W        W 1656   3.065   2.670   2.662
  660W        W 1657   6.485   0.695   2.439
  661W        W 1658   2.286   5.863   6.341
  662W        W 1659   3.708   0.846   7.169
  663W        W 1660   5.315   1.012   2.156
  664W        W 1661   1.212   6.050   4.135
  665W        W 1662   4.418   4.685   2.333
  666W        W 1663   3.570   2.692   4.939
  667W        W 1664   3.117   3.245   0.875
  668W        W 1665   3.302   5.552   5.361
  669W        W 1666   3.398   6.302   2.719
  670W        W 1667   7.441   2.521   4.771
  671W        W 1668   3.114   6.425   0.093
  672W        W 1669   4.183   0.432   5.722
  673W        W 1670   4.758   3.178   2.262
  674W        W 1671   7.052   4.064   4.338
  675W        W 1672   0.063   3.334   1.877
  676W        W 1673   4.492   2.315   5.164
  677W        W 1674   6.124   5.431   3.999
  678W        W 1675   2.929   3.730   6.663
  679W        W 1676   6.545   0.630   1.750
  680W        W 1677   4.720   2.586   0.151
  681W        W 1678   3.666   1.042   2.376
  682W        W 1679   6.602   4.315   3.583
  683W        W 1680   4.428   4.893   7.861
  684W        W 1681   0.894   5.629   7.825
  685W        W 1682   5.021   6.502   4.099
  686W        W 1683   7.508   3.429   0.331
  687W        W 1684   0.355   1.834   0.726
  688W        W 1685   3.006   4.287   2.349
  689W        W 1686   7.125   2.817   3.551
  690W        W 1687   6.192   5.055   6.704
  691W        W 1688   0.096   5.650   2.097
  692W        W 1689   5.053   5.760   2.776
  693W        W 1690   2.920   7.448   6.800
  694W        W 1691   0.547   1.496   2.918
  695W        W 1692   0.045   5.409   0.230
  696W        W 1693   3.246   0.574   7.868
  697W        W 1694   6.209   6.210   5.412
  698W        W 1695   0.915   3.151   0.918
  699W        W 1696   3.496   1.107   2.959
  700W        W 1697   1.071   5.493   0.947
  701W        W 1698   0.202   1.289   7.218
  702W        W 1699   6.261   0.329   0.226
  703W        W 1700   7.595   7.058   4.752
  704W        W 1701   5.221   7.081   1.783
  705W        W 1702   4.346   7.524   2.685
  706W        W 1703   2.680   2.372   6.812
  707W        W 1704   0.272   4.236   0.905
  708W        W 1705   5.840   5.692   4.668
  709W        W 1706   6.359   6.594   1.848
  710W        W 1707   5.430   2.222   2.987
  711W        W 1708   4.265   1.979   4.152
  712W        W 1709   0.352   0.725   0.326
  713W        W 1710   5.441   5.763   1.841
  714W        W 1711   0.531   2.365   5.632
  715W        W 1712   7.621   3.237   5.727
  716W        W 1713   0.649   2.401   2.353
  717W        W 1714   5.750   2.488   7.144
  718W        W 1715   1.721   3.936   3.585
  719W        W 1716   3.599   7.066   1.749
  720W        W 1717   6.342   3.027   5.733
  721W        W 1718   5.545   4.090   2.682
  722W        W 1719   2.264   5.237   2.081
  723W        W 1720   5.913   7.713   4.093
  724W        W 1721   3.245   6.402   1.144
  725W        W 1722   5.110   0.302   7.294
  726W        W 1723   2.502   6.522   3.966
  727W        W 1724   4.040   7.897   1.758
  728W        W 1725   5.233   2.606   3.191
  729W        W 1726   4.869   1.991   7.449
  730W        W 1727   3.390   3.753   2.940
  731W        W 1728   0.812   1.401   2.087
  732W        W 1729   3.202   6.231   7.403
  733W        W 1730   1.524   6.920   4.096
  734W        W 1731   7.420   1.326   1.427
  735W        W 1732   2.250   3.925   2.825
  736W        W 1733   2.558   2.666   6.394
  737W        W 1734   7.651   2.160   5.691
  738W        W 1735   6.438   3.904   5.094
  739W        W 1736   2.562   1.742   0.562
  740W        W 1737   3.171   7.858   5.933
  741W        W 1738   5.918   1.346   4.481
  742W        W 1739   7.354   5.835   6.709
  743W        W 1740   4.056   4.719   5.852
  744W        W 1741   5.083   0.796   4.373
  745W        W 1742   3.569   7.764   1.852
  746W        W 1743   3.311   0.291   3.292
  747W        W 1744   1.888   2.036   1.124
  748W        W 1745   3.141   5.918   4.320
  749W        W 1746   1.164   5.531   1.461
  750W        W 1747   1.054   6.590   4.219
  751W        W 1748   3.662   1.541   5.473
  752W        W 1749   3.922   4.919   2.477
  753W        W 1750   3.203   4.382   3.852
  754W        W 1751   3.175   1.203   2.536
  755W        W 1752   4.765   0.817   1.985
  756W        W 1753   0.138   4.991   3.804
  757W        W 1754   6.678   2.203   6.575
  758W        W 1755   4.582   7.078   7.520
  759W        W 1756   7.080   0.317   2.566
  760W        W 1757   7.047   0.066   2.996
  761W        W 1758   1.420   6.824   7.049
  762W        W 1759   2.137   6.064   3.184
  763W        W 1760   5.599   1.795   1.442
  764W        W 1761   1.079   1.219   7.341
  765W        W 1762   6.324   7.800   5.275
  766W        W 1763   3.814   6.348   3.067
  767W        W 1764   0.638   6.022   7.278
  768W        W 1765   3.896   0.582   2.569
  769W        W 1766   7.838   7.938   6.760
  770W        W 1767   5.724   3.797   7.221
  771W        W 1768   4.748   0.991   5.906
  772W        W 1769   1.694   6.996   6.608
  773W        W 1770   6.550   6.219   6.919
  774W        W 1771   4.141   2.484   1.491
  775W        W 1772   4.366   4.879   1.892
  776W        W 1773   3.890   4.464   5.227
  777W        W 1774   4.322   4.220   2.198
  778W        W 1775   7.712   6.556   5.491
  779W        W 1776   6.681   0.257   1.311
  780W        W 1777   6.360   0.096   6.675
  781W        W 1778   3.641   2.035   4.803
  782W        W 1779   5.137   0.074   6.827
  783W        W 1780   7.127   1.857   4.383
  784W        W 1781   1.201   2.145   0.449
  785W        W 1782   5.710   6.609   4.849
  786W        W 1783   3.286   6.929   2.196
  787W        W 1784   7.891   6.294   0.069
  788W        W 1785   1.462   2.385   3.446
  789W        W 1786   6.993   6.038   1.494
  790W        W 1787   6.291   2.003   5.622
  791W        W 1788   6.843   6.613   4.968
  792W        W 1789   0.192   7.138   1.280
  793W        W 1790   3.695   6.274   7.428
  794W        W 1791   1.536   1.917   5.082
  795W        W 1792   7.188   6.624   5.549
  796W        W 1793   3.745   5.473   2.203
  797W        W 1794   2.387   1.610   3.010
  798W        W 1795   2.750   7.132   5.512
  799W        W 1796   1.472   4.161   3.223
  800W        W 1797   3.574   6.717   1.410
  801W        W 1798   5.807   3.849   2.025
  802W        W 1799   4.042   6.809   2.948
  803W        W 1800   2.298   5.809   2.189
  804W        W 1801   1.396   7.287   3.533
  805W        W 1802   5.793   4.260   3.313
  806W        W 1803   6.593   6.010   1.145
  807W        W 1804   3.303   7.064   4.739
  808W        W 1805   5.584   4.019   1.010
  809W        W 1806   7.298   7.951   2.552
  810W        W 1807   7.551   2.447   6.509
  811W        W 1808   4.137   1.128   2.129
  812W        W 1809   2.771   3.120   1.212
  813W        W 1810   7.193   3.845   6.617
  814W        W 1811   3.496   1.347   0.700
  815W        W 1812   5.959   1.680   4.854
  816W        W 1813   4.010   1.473   0.865
  817W        W 1814   3.907   1.399   6.185
  818W        W 1815   6.760   3.430   2.768
  819W        W 1816   2.220   5.611   5.922
  820W        W 1817   5.565   4.482   1.544
  821W        W 1818   0.017   2.878   5.815
  822W        W 1819   5.654   3.685   5.857
  823W        W 1820   4.875   6.902   5.078
  824W        W 1821   0.603   3.088   3.538
  825W        W 1822   0.824   2.973   4.029
  826W        W 1823   3.367   0.318   5.128
  827W        W 1824   4.797   7.291   3.383
  828W        W 1825   2.635   3.243   6.778
  829W        W 1826   2.664   7.910   6.859
  830W        W 1827   7.209   0.112   5.633
  831W        W 1828   5.711   6.140   6.348
  832W        W 1829   6.674   2.198   4.234
  833W        W 1830   1.766   4.509   2.203
  834W        W 1831   1.742   2.104   3.805
  835W        W 1832   3.532   5.255   7.353
  836W        W 1833   6.076   2.859   0.746
  837W        W 1834   6.226   3.159   6.787
  838W        W 1835   6.275   7.544   1.196
  839W        W 1836   1.311   2.704   1.901
  840W        W 1837   5.397   2.054   0.944
  841W        W 1838   6.285   2.643   0.354
  842W        W 1839   3.694   0.903   0.452
  843W        W 1840   1.893   0.839   0.304
  844W        W 1841   0.295   2.665   3.303
  845W        W 1842   5.081   3.448   5.746
  846W        W 1843   7.262   3.375   4.721
  847W        W 1844   4.021   3.014   6.903
  848W        W 1845   1.218   0.494   3.184
  849W        W 1846   0.889   0.470   6.247
  850W        W 1847   2.027   1.006   3.859
  851W        W 1848   0.735   2.826   3.144
  852W        W 1849   1.304   4.926   7.471
  853W        W 1850   4.825   4.081   6.240
  854W        W 1851   6.728   3.740   2.280
  855W        W 1852   5.114   4.551   0.243
  856W        W 1853   7.038   6.970   1.620
  857W        W 1854   3.822   4.518   1.635
  858W        W 1855   4.001   1.172   5.234
  859W        W 1856   0.496   5.291   6.603
  860W        W 1857   3.944   7.955   0.814
  861W        W 1858   0.546   3.519   6.411
  862W        W 1859   2.529   7.416   0.197
  863W        W 1860   0.703   1.015   5.857
  864W        W 1861   3.681   1.747   6.533
  865W        W 1862   1.332   0.205   1.773
  866W        W 1863   5.819   7.572   7.811
  867W        W 1864   4.667   0.544   5.546
  868W        W 1865   5.235   5.420   5.229
  869W        W 1866   5.804   2.667   1.240
  870W        W 1867   5.441   2.297   0.320
  871W        W 1868   4.362   1.525   5.319
  872W        W 1869   7.313   0.298   1.797
  873W        W 1870   0.001   1.151   2.642
  874W        W 1871   6.472   4.314   2.496
  875W        W 1872   3.087   7.268   4.331
  876W        W 1873   2.723   7.498   7.370
  877W        W 1874   0.068   3.400   6.557
  878W        W 1875   2.906   7.091   6.429
  879W        W 1876   3.296   3.517   5.610
  880W        W 1877   4.511   5.557   4.874
  881W        W 1878   5.860   4.474   0.835
  882W        W 1879   3.140   5.477   4.628
  883W        W 1880   6.893   6.693   6.422
  884W        W 1881   4.391   2.575   3.360
  885W        W 1882   2.906   6.379   4.289
  886W        W 1883   2.871   6.934   7.424
  887W        W 1884   3.712   2.699   1.305
  888W        W 1885   4.092   2.239   3.547
  889W        W 1886   1.500   0.397   0.922
  890W        W 1887   6.536   7.195   0.908
  891W        W 1888   5.036   3.241   1.043
  892W        W 1889   6.763   3.246   7.585
  893W        W 1890   4.943   4.920   7.811
  894W        W 1891   4.566   3.157   5.852
  895W        W 1892   2.943   6.998   3.799
  896W        W 1893   6.608   1.653   0.232
  897W        W 1894   0.515   7.604   2.725
  898W        W 1895   2.104   3.453   2.841
  899W        W 1896   6.428   6.822   5.303
  900W        W 1897   5.360   4.774   6.942
  901W        W 1898   3.958   6.118   6.932
  902W        W 1899   0.128   4.512   3.746
  903W        W 1900   0.526   5.648   5.930
  904W        W 1901   6.709   2.108   2.927
  905W        W 1902   4.465   5.572   7.382
  906W        W 1903   6.941   6.530   3.030
  907W        W 1904   5.805   4.177   6.037
  908W        W 1905   0.388   3.811   5.758
  909W        W 1906   4.005   3.468   7.190
  910W        W 1907   5.202   7.213   4.833
  911W        W 1908   4.491   2.303   7.446
  912W        W 1909   4.296   4.753   2.859
  913W        W 1910   3.337   2.878   3.083
  914W        W 1911   3.582   0.331   2.203
  915W        W 1912   6.898   1.536   4.724
  916W        W 1913   2.483   1.644   3.901
  917W        W 1914   5.851   5.987   3.251
  918W        W 1915   6.844   3.175   3.995
  919W        W 1916   0.518   3.301   1.767
  920W        W 1917   5.552   1.919   4.293
  921W        W 1918   6.644   6.410   3.846
  922W        W 1919   5.767   1.207   5.472
  923W        W 1920   7.590   5.210   7.218
  924W        W 1921   3.918   3.500   2.945
  925W        W 1922   6.334   2.871   1.214
  926W        W 1923   7.759   4.400   7.436
  927W        W 1924   1.164   0.380   1.302
  928W        W 1925   7.745   7.456   3.841
  929W        W 1926   1.428   5.400   5.470
  930W        W 1927   7.012   3.763   1.423
  931W        W 1928   2.536   2.445   3.485
  932W        W 1929   1.085   2.146   3.233
  933W        W 1930   6.972   6.161   3.542
  934W        W 1931   0.454   3.077   0.898
  935W        W 1932   1.276   5.980   1.156
  936W        W 1933   4.396   0.151   0.998
  937W        W 1934   3.757   0.708   5.103
  938W        W 1935   4.030   5.915   7.447
  939W        W 1936   5.179   7.568   1.086
  940W        W 1937   3.198   1.616   3.374
  941W        W 1938   7.319   5.022   0.938
  942W        W 1939   3.013   2.894   6.527
  943W        W 1940   0.221   2.667   1.105
  944W        W 1941   5.527   2.920   0.879
  945W        W 1942   7.000   1.626   3.893
  946W        W 1943   0.082   5.279   5.631
  947W        W 1944   6.018   0.832   1.040
  948W        W 1945   3.547   2.545   2.758
  949W        W 1946   1.077   0.354   4.798
  950W        W 1947   2.600   5.145   3.858
  951W        W 1948   5.689   2.920   2.350
  952W        W 1949   2.504   2.739   0.926
  953W        W 1950   2.973   3.959   2.779
  954W        W 1951   5.555   0.154   7.125
  955W        W 1952   4.456   7.403   5.796
  956W        W 1953   4.675   2.752   1.870
  957W        W 1954   4.158   4.184   3.586
  958W        W 1955   2.269   6.175   1.319
  959W        W 1956   4.490   2.764   5.433
  960W        W 1957   1.819   5.613   0.564
  961W        W 1958   0.003   4.041   0.383
  962W        W 1959   2.220   4.757   6.135
  963W        W 1960   6.730   3.597   1.028
  964W        W 1961   7.406   6.131   6.248
  965W        W 1962   7.332   7.423   1.373
  966W        W 1963   4.591   4.252   3.345
  967W        W 1964   4.236   3.011   7.500
  968W        W 1965   1.180   6.272   4.569
  969W        W 1966   6.335   6.960   4.023
  970W        W 1967   3.501   0.218   0.224
  971W        W 1968   3.316   5.053   5.264
  972W        W 1969   7.415   4.354   2.392
  973W        W 1970   2.056   1.011   2.319
  974W        W 1971   6.567   3.433   6.491
  975W        W 1972   4.902   7.280   1.376
  976W        W 1973   1.908   5.662   4.953
  977W        W 1974   4.602   6.999   0.081
  978W        W 1975   4.303   6.390   2.982
  979W        W 1976   5.422   4.965   0.270
  980W        W 1977   6.280   6.292   7.885
  981W        W 1978   0.941   6.014   0.318
  982W        W 1979   6.389   7.684   2.789
  983W        W 1980   1.900   0.251   4.031
  984W        W 1981   5.444   2.473   2.541
  985W        W 1982   5.713   1.745   1.961
  986W        W 1983   3.530   7.966   7.123
  987W        W 1984   6.268   4.709   2.901
  988W        W 1985   5.641   5.643   3.982
  989W        W 1986   7.776   5.874   7.021
  990W        W 1987   4.843   4.339   0.739
  991W        W 1988   6.335   5.614   1.370
  992W        W 1989   0.195   1.231   0.158
  993W        W 1990   0.354   7.844   6.757
  994W        W 1991   7.146   0.763   5.058
  995W        W 1992   7.476   2.066   4.116
  996W        W 1993   3.928   6.100   6.005
  997W        W 1994   2.580   4.977   6.336
  998W        W 1995   1.569   5.996   5.173
  999W        W 1996   4.949   4.583   3.597
 1000W        W 1997   3.142   6.756   5.561
 1001W        W 1998   1.693   3.645   5.545
 1002W        W 1999   1.664   3.058   4.620
 1003W        W 2000   2.044   4.616   6.907
 1004W        W 2001   4.830   4.724   1.087
 1005W        W 2002   3.505   2.500   0.225
 1006W        W 2003   5.833   5.746   1.482
 1007W        W 2004   7.628   3.244   1.543
 1008W        W 2005   5.518   2.090   3.465
 1009W        W 2006   2.215   3.016   6.558
 1010W        W 2007   6.436   0.366   3.845
 1011W        W 2008   7.726   2.999   7.922
 1012W        W 2009   6.981   4.385   5.350
 1013W        W 2010   2.470   5.045   6.798
 1014W        W 2011   0.296   1.363   4.181
 1015W        W 2012   0.897   3.350   1.464
 1016W        W 2013   3.724   1.509   3.200
 1017W        W 2014   4.354   7.543   3.313
 1018W        W 2015   7.034   5.787   3.834
 1019W        W 2016   3.507   3.142   5.294
 1020W        W 2017   5.145   6.054   6.881
 1021W        W 2018   3.004   0.352   0.136
 1022W        W 2019   5.241   3.473   4.395
 1023W        W 2020   4.364   0.457   7.512
 1024W        W 2021   0.452   4.205   7.641
 1025W        W 2022   5.168   0.548   2.339
 1026W        W 2023   1.032   4.046   6.922
 1027W        W 2024   4.476   0.410   1.428
 1028W        W 2025   2.368   6.709   7.733
 1029W        W 2026   5.465   5.845   0.242
 1030W        W 2027   3.341   5.214   1.690
 1031W        W 2028   5.398   2.125   6.481
 1032W        W 2029   4.562   1.263   0.791
 1033W        W 2030   1.465   6.290   7.881
 1034W        W 2031   2.826   6.337   7.059
 1035W        W 2032   4.891   6.400   5.183
 1036W        W 2033   2.804   7.722   6.385
 1037W        W 2034   1.821   0.355   0.484
 1038W        W 2035   0.775   7.207   6.385
 1039W        W 2036   1.403   1.589   1.921
 1040W        W 2037   1.342   1.666   2.598
 1041W        W 2038   6.060   1.427   2.206
 1042W        W 2039   2.874   4.892   1.459
 1043W        W 2040   1.834   0.195   2.522
 1044W        W 2041   4.969   4.629   2.548
 1045W        W 2042   0.777   3.832   3.508
 1046W        W 2043   6.085   1.512   6.300
 1047W        W 2044   6.087   1.336   3.709
 1048W        W 2045   0.385   4.034   4.797
 1049W        W 2046   6.067   3.769   3.175
 1050W        W 2047   0.482   1.379   5.674
 1051W        W 2048   0.242   4.853   3.310
 1052W        W 2049   3.665   3.092   5.783
 1053W        W 2050   5.309   6.489   1.442
 1054W        W 2051   0.524   3.550   3.870
 1055W        W 2052   0.786   3.743   2.892
 1056W        W 2053   4.999   6.683   5.574
 1057W        W 2054   0.938   1.418   6.009
 1058W        W 2055   5.440   4.797   3.544
 1059W        W 2056   4.939   7.991   5.248
 1060W        W 2057   4.667   0.450   5.005
 1061W        W 2058   0.559   1.736   5.308
 1062W        W 2059   1.912   7.623   0.138
 1063W        W 2060   6.608   3.807   1.743
 1064W        W 2061   3.360   2.001   4.042
 1065W        W 2062   4.866   2.164   0.978
 1066W        W 2063   1.154   2.878   1.361
 1067W        W 2064   1.303   5.078   1.776
 1068W        W 2065   0.217   5.175   1.127
 1069W        W 2066   3.241   7.779   2.356
 1070W        W 2067   6.462   0.782   4.379
 1071W        W 2068   5.998   1.762   4.130
 1072W        W 2069   1.353   3.223   6.577
 1073W        W 2070   2.632   3.609   0.299
 1074W        W 2071   1.278   1.701   4.585
 1075W        W 2072   6.061   1.630   1.049
 1076W        W 2073   4.359   1.204   1.277
 1077W        W 2074   7.471   0.804   3.433
 1078W        W 2075   4.863   6.071   2.328
 1079W        W 2076   0.007   7.473   7.485
 1080W        W 2077   0.304   6.595   0.094
 1081W        W 2078   6.712   4.690   7.639
 1082W        W 2079   1.447   1.939   2.961
 1083W        W 2080   5.634   6.317   5.254
 1084W        W 2081   0.985   5.964   3.333
 1085W        W 2082   6.265   4.431   5.015
 1086W        W 2083   6.228   7.698   3.540
 1087W        W 2084   3.817   0.298   5.391
 1088W        W 2085   2.476   0.913   7.524
 1089W        W 2086   6.121   3.427   7.186
 1090W        W 2087   7.453   2.320   5.309
 1091W        W 2088   7.640   7.552   7.172
 1092W        W 2089   2.261   0.455   0.278
 1093W        W 2090   0.618   6.358   1.648
 1094W        W 2091   5.950   2.835   4.406
 1095W        W 2092   3.541   0.154   2.723
 1096W        W 2093   3.276   2.798   1.962
 1097W        W 2094   6.605   4.633   3.981
 1098W        W 2095   3.938   4.747   0.571
 1099W        W 2096   3.676   6.414   3.541
 1100W        W 2097   5.639   1.258   2.512
 1101W        W 2098   6.580   2.519   7.484
 1102W        W 2099   1.672   7.002   0.107
 1103W        W 2100   4.136   5.789   0.177
 1104W        W 2101   6.582   2.142   0.206
 1105W        W 2102   3.323   6.757   7.436
 1106W        W 2103   7.066   7.436   4.566
 1107W        W 2104   4.897   3.388   6.199
 1108W        W 2105   3.152   1.405   6.034
 1109W        W 2106   4.086   7.244   4.600
 1110W        W 2107   4.753   6.501   4.682
 1111W        W 2108   7.787   1.222   1.973
 1112W        W 2109   6.495   5.484   0.012
 1113W        W 2110   0.973   2.798   0.005
 1114W        W 2111   2.719   3.061   6.067
 1115W        W 2112   0.311   2.970   6.510
 1116W        W 2113   3.989   1.950   5.393
 1117W        W 2114   4.207   2.560   7.067
 1118W        W 2115   3.163   6.994   1.347
 1119W        W 2116   3.157   2.765   4.711
 1120W        W 2117   7.415   4.168   0.704
 1121W        W 2118   6.256   1.267   4.194
 1122W        W 2119   3.739   5.514   1.710
 1123W        W 2120   3.727   2.511   2.244
 1124W        W 2121   4.923   1.444   5.399
 1125W        W 2122   2.640   2.948   4.716
 1126W        W 2123   3.330   4.647   6.497
 1127W        W 2124   5.287   2.289   7.423
 1128W        W 2125   3.494   5.968   3.092
 1129W        W 2126   5.105   5.474   6.177
 1130W        W 2127   7.078   6.166   5.351
 1131W        W 2128   6.122   1.669   0.272
 1132W        W 2129   0.562   6.696   4.224
 1133W        W 2130   7.264   2.924   4.477
 1134W        W 2131   4.618   4.853   5.774
 1135W        W 2132   5.446   0.715   3.238
 1136W        W 2133   1.736   7.025   0.934
 1137W        W 2134   3.494   1.117   5.266
 1138W        W 2135   6.668   2.283   5.422
 1139W        W 2136   3.832   3.164   3.826
 1140W        W 2137   1.718   5.164   5.019
 1141W        W 2138   5.900   4.294   2.348
 1142W        W 2139   4.167   7.871   5.845
 1143W        W 2140   0.744   0.647   3.507
 1144W        W 2141   1.061   2.166   6.440
 1145W        W 2142   3.500   4.993   3.530
 1146W        W 2143   1.456   6.088   6.783
 1147W        W 2144   0.721   5.777   4.064
 1148W        W 2145   2.224   4.029   1.619
 1149W        W 2146   6.049   4.942   5.816
 1150W        W 2147   4.093   7.270   4.077
 1151W        W 2148   4.486   1.512   3.592
 1152W        W 2149   6.821   2.684   4.519
 1153W        W 2150   0.176   4.104   4.233
 1154W        W 2151   4.662   3.662   5.389
 1155W        W 2152   3.102   2.998   5.602
 1156W        W 2153   2.564   0.491   4.434
 1157W        W 2154   6.150   4.255   5.563
 1158W        W 2155   2.932   6.778   4.683
 1159W        W 2156   0.834   4.074   5.082
 1160W        W 2157   0.487   1.568   6.136
 1161W        W 2158   1.649   2.257   0.717
 1162W        W 2159   3.816   3.033   2.810
 1163W        W 2160   7.677   5.164   1.867
 1164W        W 2161   0.980   6.467   3.292
 1165W        W 2162   3.674   6.573   5.610
 1166W        W 2163   6.041   4.914   7.650
 1167W        W 2164   1.498   1.382   4.905
 1168W        W 2165   4.399   2.224   1.137
 1169W        W 2166   1.079   0.800   4.328
 1170W        W 2167   6.991   5.747   0.853
 1171W        W 2168   3.953   0.469   0.623
 1172W        W 2169   7.739   5.277   1.321
 1173W        W 2170   5.560   2.026   4.787
 1174W        W 2171   5.736   6.995   6.161
 1175W        W 2172   0.921   6.228   2.177
 1176W        W 2173   1.817   7.156   7.400
 1177W        W 2174   1.042   6.311   7.583
 1178W        W 2175   1.148   4.542   6.912
 1179W        W 2176   6.086   5.191   1.483
 1180W        W 2177   6.891   5.013   7.314
 1181W        W 2178   4.201   3.828   2.580
 1182W        W 2179   6.918   4.515   6.020
 1183W        W 2180   6.321   3.066   5.216
 1184W        W 2181   4.420   4.149   5.220
 1185W        W 2182   6.741   2.980   6.628
 1186W        W 2183   2.993   6.432   0.665
 1187W        W 2184   5.777   5.716   7.713
 1188W        W 2185   1.153   2.669   0.473
 1189W        W 2186   6.464   2.630   6.372
 1190W        W 2187   1.910   7.212   0.497
 1191W        W 2188   2.532   6.671   0.820
 1192W        W 2189   4.139   7.036   1.675
 1193W        W 2190   3.777   5.041   3.983
 1194W        W 2191   6.230   5.550   1.949
 1195W        W 2192   1.666   2.182   2.557
 1196W        W 2193   2.663   7.517   0.802
 1197W        W 2194   6.420   2.814   4.139
 1198W        W 2195   0.056   0.427   2.832
 1199W        W 2196   6.219   5.873   6.812
 1200W        W 2197   3.781   0.367   1.725
 1201W        W 2198   4.343   4.692   5.384
 1202W        W 2199   5.340   6.059   2.541
 1203W        W 2200   4.344   3.901   3.061
 1204W        W 2201   1.347   6.122   2.686
 1205W        W 2202   2.514   3.844   0.708
 1206W        W 2203   6.884   0.578   7.417
 1207W        W 2204   4.079   6.023   4.351
 1208W        W 2205   4.425   1.954   7.083
 1209W        W 2206   3.688   2.512   3.309
 1210W        W 2207   0.232   6.549   0.771
 1211W        W 2208   0.591   5.175   3.517
 1212W        W 2209   5.587   2.360   1.548
 1213W        W 2210   3.663   0.579   3.519
 1214W        W 2211   1.800   6.958   4.553
 1215W        W 2212   6.351   1.034   2.079
 1216W        W 2213   0.347   5.778   5.098
 1217W        W 2214   4.602   2.448   0.681
 1218W        W 2215   0.176   3.893   3.716
 1219W        W 2216   2.342   0.988   4.635
 1220W        W 2217   6.373   3.359   3.339
 1221W        W 2218   6.861   1.993   2.479
 1222W        W 2219   6.455   5.133   2.675
 1223W        W 2220   5.481   0.448   7.577
 1224W        W 2221   4.876   1.732   6.991
 1225W        W 2222   0.850   0.708   2.890
 1226W        W 2223   0.172   5.419   6.260
 1227W        W 2224   1.607   3.627   7.575
 1228W        W 2225   4.993   6.619   1.777
 1229W        W 2226   0.447   3.259   0.140
 1230W        W 2227   3.927   1.219   1.525
 1231W        W 2228   5.914   2.344   3.234
 1232W        W 2229   1.936   7.458   1.801
 1233W        W 2230   2.946   3.010   7.081
 1234W        W 2231   0.403   0.677   2.529
 1235W        W 2232   3.607   4.399   5.713
 1236W        W 2233   3.650   1.181   5.817
 1237W        W 2234   6.839   0.103   0.252
 1238W        W 2235   1.304   2.260   7.257
 1239W        W 2236   0.355   6.905   2.535
 1240W        W 2237   6.922   4.117   1.982
 1241W        W 2238   1.998   4.181   3.126
 1242W        W 2239   6.060   5.321   2.393
 1243W        W 2240   3.362   7.821   7.687
 1244W        W 2241   3.696   3.430   6.748
 1245W        W 2242   6.034   3.740   0.950
 1246W        W 2243   3.728   0.913   6.345
 1247W        W 2244   5.230   5.305   1.880
 1248W        W 2245   3.032   1.755   2.519
 1249W        W 2246   2.294   6.490   1.731
 1250W        W 2247   5.000   2.260   2.551
 1251W        W 2248   4.997   6.915   4.465
 1252W        W 2249   3.596   2.501   0.732
 1253W        W 2250   0.936   4.322   6.089
 1254W        W 2251   0.833   7.622   6.778
 1255W        W 2252   4.062   5.318   4.870
 1256W        W 2253   3.889   6.723   7.542
 1257W        W 2254   1.014   0.208   4.188
 1258W        W 2255   0.862   6.538   0.251
 1259W        W 2256   5.894   7.172   3.957
 1260W        W 2257   1.124   3.015   2.735
 1261W        W 2258   0.300   4.453   6.463
 1262W        W 2259   3.578   1.992   7.916
 1263W        W 2260   0.285   5.537   3.614
 1264W        W 2261   0.325   0.641   1.620
 1265W        W 2262   4.457   7.728   5.363
 1266W        W 2263   1.853   7.749   2.223
 1267W        W 2264   5.461   4.541   2.447
 1268W        W 2265   0.517   7.623   7.632
 1269W        W 2266   3.356   7.307   0.143
 1270W        W 2267   5.951   7.552   2.617
 1271W        W 2268   4.165   0.077   3.431
 1272W        W 2269   0.764   5.254   4.025
 1273W        W 2270   7.025   4.993   6.147
 1274W        W 2271   1.355   0.207   2.311
 1275W        W 2272   4.635   5.394   4.002
 1276W        W 2273   4.323   6.866   3.803
 1277W        W 2274   2.815   2.610   7.300
 1278W        W 2275   6.963   0.777   3.486
 1279W        W 2276   6.482   3.851   2.716
 1280W        W 2277   5.027   1.383   6.502
 1281W        W 2278   3.985   7.425   0.898
 1282W        W 2279   5.171   7.381   2.880
 1283W        W 2280   0.061   1.487   5.192
 1284W        W 2281   4.114   0.242   2.343
 1285W        W 2282   4.686   0.030   7.445
 1286W        W 2283   2.811   2.637   5.717
 1287W        W 2284   5.301   0.539   0.683
 1288W        W 2285   3.173   1.837   7.517
 1289W        W 2286   0.429   5.027   5.229
 1290W        W 2287   7.601   7.132   5.439
 1291W        W 2288   1.914   4.956   0.181
 1292W        W 2289   2.414   3.338   3.550
 1293W        W 2290   5.515   3.154   0.293
 1294W        W 2291   5.947   0.852   4.478
 1295W        W 2292   7.451   4.429   0.239
 1296W        W 2293   6.069   3.507   6.110
 1297W        W 2294   7.708   1.714   7.231
 1298W        W 2295   1.076   5.248   4.481
 1299W        W 2296   4.952   5.119   0.358
 1300W        W 2297   3.882   7.454   1.443
 1301W        W 2298   7.136   7.857   5.127
 1302W        W 2299   4.823   2.843   3.268
 1303W        W 2300   1.508   2.550   1.237
 1304W        W 2301   7.671   4.616   1.903
 1305W        W 2302   4.984   0.197   5.627
 1306W        W 2303   2.006   2.364   7.588
 1307W        W 2304   1.266   3.859   5.422
 1308W        W 2305   4.074   1.852   1.220
 1309W        W 2306   1.433   6.839   5.911
 1310W        W 2307   0.937   6.741   7.292
 1311W        W 2308   3.873   2.918   0.695
 1312W        W 2309   4.633   1.684   6.480
 1313W        W 2310   3.132   5.419   7.093
 1314W        W 2311   5.136   5.654   2.250
 1315W        W 2312   5.669   0.753   6.255
 1316W        W 2313   2.224   1.472   2.370
 1317W        W 2314   2.176   6.495   3.556
 1318W        W 2315   3.637   6.393   4.251
 1319W        W 2316   2.105   6.729   6.482
 1320W        W 2317   0.188   7.660   5.751
 1321W        W 2318   6.312   6.895   0.582
 1322W        W 2319   6.740   4.741   2.733
 1323W        W 2320   5.952   6.594   1.539
 1324W        W 2321   1.833   4.741   7.357
 1325W        W 2322   3.296   2.774   7.354
 1326W        W 2323   6.362   5.429   3.533
 1327W        W 2324   2.922   5.931   5.199
 1328W        W 2325   5.128   4.140   2.311
 1329W        W 2326   4.899   1.989   5.242
 1330W        W 2327   5.590   6.386   6.761
 1331W        W 2328   1.693   7.448   6.320
 1332W        W 2329   5.579   3.161   7.796
 1333W        W 2330   1.112   3.647   0.840
 1334W        W 2331   6.331   0.780   2.972
 1335W        W 2332   7.290   1.129   3.799
 1336W        W 2333   3.714   2.040   1.465
 1337W        W 2334   7.237   5.494   2.855
 1338W        W 2335   3.796   6.571   6.955
 1339W        W 2336   1.778   6.030   1.271
 1340W        W 2337   7.591   2.620   1.561
 1341W        W 2338   1.116   5.761   4.478
 1342W        W 2339   5.633   5.043   6.633
 1343W        W 2340   7.548   7.130   7.445
 1344W        W 2341   4.078   6.811   1.228
 1345W        W 2342   7.313   4.817   7.484
 1346W        W 2343   7.388   6.661   7.393
 1347W        W 2344   2.617   2.730   5.294
 1348W        W 2345   0.066   4.405   4.621
 1349W        W 2346   1.082   5.121   3.580
 1350W        W 2347   6.769   6.635   7.704
 1351W        W 2348   0.164   6.131   6.648
 1352W        W 2349   0.785   4.239   2.560
 1353W        W 2350   3.554   3.598   7.563
 1354W        W 2351   0.559   3.992   6.820
 1355W        W 2352   1.894   1.102   7.970
 1356W        W 2353   2.800   4.596   3.966
 1357W        W 2354   4.534   1.931   3.184
 1358W        W 2355   5.336   6.642   0.219
 1359W        W 2356   5.751   4.630   2.029
 1360W        W 2357   2.358   2.337   7.234
 1361W        W 2358   5.462   7.445   5.905
 1362W        W 2359   3.398   6.171   5.759
 1363W        W 2360   1.932   6.657   7.394
 1364W        W 2361   5.947   3.208   1.205
 1365W        W 2362   3.313   3.006   6.108
 1366W        W 2363   7.018   4.293   7.774
 1367W        W 2364   6.251   4.531   2.084
 1368W        W 2365   5.677   0.823   1.485
 1369W        W 2366   0.181   0.313   7.472
 1370W        W 2367   4.061   5.772   6.440
 1371W        W 2368   4.046   2.412   5.076
 1372W        W 2369   7.788   3.530   1.096
 1373W        W 2370   1.272   7.091   6.285
 1374W        W 2371   6.063   2.971   2.700
 1375W        W 2372   6.957   3.770   7.577
 1376W        W 2373   4.540   2.522   6.452
 1377W        W 2374   3.530   0.381   6.928
 1378W        W 2375   3.573   2.011   3.508
 1379W        W 2376   7.941   6.739   7.309
 1380W        W 2377   5.642   1.206   5.954
 1381W        W 2378   3.708   0.045   6.418
 1382W        W 2379   5.034   1.272   4.762
 1383W        W 2380   0.590   4.329   2.097
 1384W        W 2381   1.725   4.283   6.180
 1385W        W 2382   4.089   2.308   3.037
 1386W        W 2383   3.429   0.065   4.510
 1387W        W 2384   1.038   3.576   7.433
 1388W        W 2385   6.126   6.337   3.747
 1389W        W 2386   6.615   3.402   5.975
 1390W        W 2387   2.175   1.295   1.874
 1391W        W 2388   1.999   3.934   4.185
 1392W        W 2389   0.093   1.727   6.402
 1393W        W 2390   3.957   7.669   5.072
 1394W        W 2391   1.754   2.981   6.474
 1395W        W 2392   6.848   5.103   3.094
 1396W        W 2393   5.235   1.803   2.756
 1397W        W 2394   1.685   1.293   0.421
 1398W        W 2395   7.130   4.711   6.527
 1399W        W 2396   5.257   2.207   6.949
 1400W        W 2397   0.545   6.512   7.548
 1401W        W 2398   0.439   1.282   2.433
 1402W        W 2399   0.256   3.930   1.979
 1403W        W 2400   0.659   7.191   4.113
 1404W        W 2401   7.192   2.343   1.678
 1405W        W 2402   1.077   4.228   4.581
 1406W        W 2403   6.233   7.846   2.339
 1407W        W 2404   3.342   0.838   6.064
 1408W        W 2405   5.847   3.300   0.705
 1409W        W 2406   1.049   2.854   5.481
 1410W        W 2407   3.880   1.009   3.305
 1411W        W 2408   3.414   0.026   3.754
 1412W        W 2409   1.204   1.112   5.672
 1413W        W 2410   4.636   3.366   0.664
 1414W        W 2411   6.972   4.184   3.358
 1415W        W 2412   1.757   5.758   2.386
 1416W        W 2413   2.785   0.380   0.604
 1417W        W 2414   7.453   7.326   6.059
 1418W        W 2415   7.622   7.395   6.668
 1419W        W 2416   4.467   7.370   2.231
 1420W        W 2417   5.881   6.534   6.110
 1421W        W 2418   4.415   1.467   7.041
 1422W        W 2419   7.622   2.966   7.407
 1423W        W 2420   0.696   0.010   4.939
 1424W        W 2421   5.107   6.191   5.599
 1425W        W 2422   3.922   7.605   7.838
 1426W        W 2423   2.765   6.116   0.203
 1427W        W 2424   6.542   2.731   2.102
 1428W        W 2425   5.764   6.814   0.460
 1429W        W 2426   0.607   5.107   5.786
 1430W        W 2427   5.685   5.510   5.672
 1431W        W 2428   6.651   7.169   3.600
 1432W        W 2429   7.032   1.800   7.258
 1433W        W 2430   7.466   0.457   7.432
 1434W        W 2431   1.287   5.443   7.476
 1435W        W 2432   5.107   0.975   1.586
 1436W        W 2433   2.976   2.602   0.038
 1437W        W 2434   6.839   7.828   2.078
 1438W        W 2435   5.096   0.342   3.456
 1439W        W 2436   7.414   3.625   6.082
 1440W        W 2437   7.444   6.258   6.994
 1441W        W 2438   1.698   6.040   0.745
 1442W        W 2439   4.291   7.260   5.202
 1443W        W 2440   1.571   0.159   3.661
 1444W        W 2441   2.094   1.166   2.820
 1445W        W 2442   4.369   0.714   2.394
 1446W        W 2443   1.978   2.923   3.614
 1447W        W 2444   4.646   5.944   7.121
 1448W        W 2445   2.184   7.558   7.565
 1449W        W 2446   5.632   6.273   0.555
 1450W        W 2447   7.772   5.007   2.868
 1451W        W 2448   0.832   7.449   1.820
 1452W        W 2449   6.322   5.740   3.160
 1453W        W 2450   2.543   3.552   1.080
 1454W        W 2451   1.489   3.457   3.598
 1455W        W 2452   7.830   0.337   1.667
 1456W        W 2453   7.209   1.608   1.007
 1457W        W 2454   7.684   3.770   1.542
 1458W        W 2455   1.791   1.401   2.178
 1459W        W 2456   7.616   1.182   4.268
 1460W        W 2457   4.021   1.985   0.088
 1461W        W 2458   3.777   5.363   5.362
 1462W        W 2459   0.557   0.767   0.837
 1463W        W 2460   2.719   4.465   6.255
 1464W        W 2461   3.286   1.367   7.418
 1465W        W 2462   6.292   1.655   3.345
 1466W        W 2463   0.073   7.311   2.727
 1467W        W 2464   5.061   3.422   7.793
 1468W        W 2465   6.417   4.384   7.015
 1469W        W 2466   3.487   2.871   3.580
 1470W        W 2467   3.098   0.309   1.107
 1471W        W 2468   5.510   5.288   6.214
 1472W        W 2469   0.645   6.649   2.890
 1473W        W 2470   0.532   6.204   3.129
 1474W        W 2471   3.502   4.934   4.472
 1475W        W 2472   3.017   4.769   2.442
 1476W        W 2473   7.654   7.606   4.340
 1477W        W 2474   4.595   0.268   3.168
 1478W        W 2475   2.018   2.511   2.460
 1479W        W 2476   6.307   0.071   1.782
 1480W        W 2477   5.339   2.579   3.728
 1481W        W 2478   2.529   5.449   6.412
 1482W        W 2479   3.428   5.126   6.378
 1483W        W 2480   7.373   3.802   3.851
 1484W        W 2481   3.151   2.240   0.425
 1485W        W 2482   2.520   0.357   6.877
 1486W        W 2483   7.254   2.918   6.584
 1487W        W 2484   0.615   4.878   2.424
 1488W        W 2485   0.527   1.313   7.570
 1489W        W 2486   7.116   5.438   7.039
 1490W        W 2487   1.996   0.039   3.378
 1491W        W 2488   7.608   5.585   6.318
 1492W        W 2489   0.213   6.878   1.741
 1493W        W 2490   6.753   7.597   4.938
 1494W        W 2491   3.436   4.257   2.072
 1495W        W 2492   7.335   1.510   1.843
 1496W        W 2493   1.189   5.528   3.936
 1497W        W 2494   3.193   1.760   0.687
 1498W        W 2495   3.407   4.553   0.697
 1499W        W 2496   1.650   1.108   1.739
 1500W        W 2497   4.816   2.432   7.080
 1501W        W 2498   5.085   2.746   4.577
 1502W        W 2499   6.311   1.793   6.945
 1503W        W 2500   4.427   7.403   7.943
 1504W        W 2501   7.248   0.490   4.654
 1505W        W 2502   0.710   6.439   5.324
 1506W        W 2503   1.578   0.561   1.513
 1507W        W 2504   0.163   4.900   4.767
 1508W        W 2505   1.390   3.206   7.456
 1509W        W 2506   5.150   3.670   7.039
 1510W        W 2507   5.962   7.482   3.126
 1511W        W 2508   1.789   5.157   2.912
 1512W        W 2509   7.661   4.491   5.009
 1513W        W 2510   2.531   1.020   2.076
 1514W        W 2511   3.016   3.384   3.020
 1515W        W 2512   5.513   6.056   4.835
 1516W        W 2513   1.410   4.579   4.291
 1517W        W 2514   5.463   1.985   5.925
 1518W        W 2515   1.992   2.594   6.242
 1519W        W 2516   0.177   2.228   6.485
 1520W        W 2517   4.955   7.737   2.542
 1521W        W 2518   4.453   4.650   6.316
 1522W        W 2519   3.162   2.630   5.248
 1523W        W 2520   5.435   6.421   5.905
 1524W        W 2521   2.795   3.487   5.861
 1525W        W 2522   5.505   4.971   7.689
 1526W        W 2523   5.537   4.004   1.517
 1527W        W 2524   6.639   4.827   0.731
 1528W        W 2525   1.803   5.346   5.932
 1529W        W 2526   1.989   5.266   3.367
 1530W        W 2527   1.441   0.409   2.745
 1531W        W 2528   7.056   0.768   6.982
 1532W        W 2529   5.358   4.297   3.635
 1533W        W 2530   7.061   0.525   2.126
 1534W        W 2531   0.576   4.406   7.164
 1535W        W 2532   1.734   0.332   7.420
 1536W        W 2533   5.772   2.401   0.733
 1537W        W 2534   4.438   5.155   5.178
 1538W        W 2535   2.671   1.960   6.346
 1539W        W 2536   5.814   5.830   2.740
 1540W        W 2537   0.692   1.024   3.893
 1541W        W 2538   4.076   4.360   3.129
 1542W        W 2539   3.205   0.791   3.265
 1543W        W 2540   5.526   5.410   6.960
 1544W        W 2541   1.990   2.427   0.388
 1545W        W 2542   2.868   5.553   4.098
 1546W        W 2543   0.980   5.608   5.702
 1547W        W 2544   0.274   4.709   0.782
 1548W        W 2545   2.491   4.948   4.695
 1549W        W 2546   2.467   0.548   1.911
 1550W        W 2547   2.116   7.090   7.854
 1551W        W 2548   3.216   3.324   6.769
 1552W        W 2549   2.016   0.649   2.763
 1553W        W 2550   2.458   2.247   5.464
 1554W        W 2551   2.046   1.167   1.366
 1555W        W 2552   6.257   0.049   7.804
 1556W        W 2553   2.647   5.507   6.980
 1557W        W 2554   5.881   5.785   2.260
 1558W        W 2555   7.808   6.537   3.566
 1559W        W 2556   3.516   7.607   4.272
 1560W        W 2557   3.424   6.925   3.613
 1561W        W 2558   0.483   0.297   6.555
 1562W        W 2559   1.912   1.926   2.155
 1563W        W 2560   3.943   1.522   7.879
 1564W        W 2561   4.429   4.711   7.357
 1565W        W 2562   1.396   6.712   7.553
 1566W        W 2563   4.099   3.364   5.994
 1567W        W 2564   7.494   1.191   0.984
 1568W        W 2565   3.853   4.818   0.070
 1569W        W 2566   5.960   1.198   4.977
 1570W        W 2567   5.033   5.651   0.213
 1571W        W 2568   5.166   3.297   2.554
 1572W        W 2569   6.900   2.318   0.600
 1573W        W 2570   1.111   2.459   6.875
 1574W        W 2571   4.177   4.628   3.946
 1575W        W 2572   5.798   2.784   3.902
 1576W        W 2573   7.073   4.583   3.715
 1577W        W 2574   7.179   3.464   7.307
 1578W        W 2575   4.388   4.202   7.528
 1579W        W 2576   1.875   5.670   2.863
 1580W        W 2577   1.249   4.190   0.839
 1581W        W 2578   4.097   2.644   2.627
 1582W        W 2579   4.638   6.353   5.644
 1583W        W 2580   3.580   3.200   1.064
 1584W        W 2581   3.843   0.785   5.595
 1585W        W 2582   1.962   0.517   3.593
 1586W        W 2583   7.330   6.644   5.037
 1587W        W 2584   2.521   4.185   0.344
 1588W        W 2585   3.114   6.868   0.871
 1589W        W 2586   1.413   2.944   7.000
 1590W        W 2587   5.574   2.616   4.746
 1591W        W 2588   3.474   0.799   4.361
 1592W        W 2589   2.069   7.374   4.854
 1593W        W 2590   1.566   1.004   6.819
 1594W        W 2591   2.584   5.970   4.201
 1595W        W 2592   5.261   0.686   1.193
 1596W        W 2593   5.874   0.817   3.559
 1597W        W 2594   1.037   0.452   5.780
 1598W        W 2595   6.299   6.001   5.856
 1599W        W 2596   1.074   0.291   3.689
 1600W        W 2597   6.143   0.541   2.088
 1601W        W 2598   5.531   6.685   1.928
 1602W        W 2599   2.042   2.409   3.534
 1603W        W 2600   4.395   2.448   3.909
 1604W        W 2601   2.566   1.447   6.183
 1605W        W 2602   4.419   0.971   7.169
 1606W        W 2603   0.638   0.525   7.210
 1607W        W 2604   2.848   5.053   4.266
 1608W        W 2605   5.473   6.391   4.374
 1609W        W 2606   6.034   5.371   2.947
 1610W        W 2607   7.386   3.899   0.274
 1611W        W 2608   3.674   5.952   4.055
 1612W        W 2609   3.288   3.889   5.962
 1613W        W 2610   0.890   2.120   4.923
 1614W        W 2611   2.443   6.161   5.267
 1615W        W 2612   1.811   5.290   6.790
 1616W        W 2613   3.406   2.905   0.505
 1617W        W 2614   7.425   4.879   2.271
 1618W        W 2615   5.567   7.750   2.973
 1619W        W 2616   4.133   5.179   7.571
 1620W        W 2617   2.783   3.019   2.816
 1621W        W 2618   1.930   7.493   5.355
 1622W        W 2619   1.720   5.963   4.000
 1623W        W 2620   6.384   7.461   3.976
 1624W        W 2621   0.612   2.337   0.724
 1625W        W 2622   4.255   5.130   6.119
 1626W        W 2623   6.893   2.676   4.015
 1627W        W 2624   7.152   4.350   2.928
 1628W        W 2625   7.917   1.335   0.567
 1629W        W 2626   0.589   3.749   2.325
 1630W        W 2627   5.467   4.137   5.269
 1631W        W 2628   7.769   0.007   0.609
 1632W        W 2629   3.719   0.018   3.235
 1633W        W 2630   4.320   7.270   0.451
 1634W        W 2631   4.813   4.765   3.028
 1635W        W 2632   2.061   6.437   0.850
 1636W        W 2633   2.775   4.943   2.837
 1637W        W 2634   2.021   3.080   1.712
 1638W        W 2635   6.124   0.950   6.361
 1639W        W 2636   7.318   7.049   6.474
 1640W        W 2637   3.916   2.169   2.571
 1641W        W 2638   0.726   0.133   1.450
 1642W        W 2639   4.917   4.577   6.107
 1643W        W 2640   4.726   6.268   3.282
 1644W        W 2641   0.942   0.045   7.397
 1645W        W 2642   1.862   7.796   7.231
 1646W        W 2643   0.938   2.908   6.753
 1647W        W 2644   3.070   3.944   5.142
 1648W        W 2645   4.512   0.027   1.725
 1649W        W 2646   0.766   6.490   4.750
 1650W        W 2647   6.610   2.008   7.665
 1651W        W 2648   5.943   7.490   2.121
 1652W        W 2649   2.308   3.787   7.320
 1653W        W 2650   2.179   4.201   5.958
 1654W        W 2651   4.270   4.141   6.190
 1655W        W 2652   2.951   1.450   3.834
 1656W        W 2653   1.573   0.384   4.582
 1657W        W 2654   1.293   4.122   1.702
 1658W        W 2655   1.215   3.061   5.914
 1659W        W 2656   1.364   0.711   1.909
 1660W        W 2657   0.721   5.963   5.409
 1661W        W 2658   0.454   0.381   2.065
 1662W        W 2659   2.170   4.913   3.719
 1663W        W 2660   6.632   3.002   3.596
 1664W        W 2661   5.205   3.388   0.588
 1665W        W 2662   4.047   6.348   3.892
 1666W        W 2663   4.296   3.258   4.496
 1667W        W 2664   5.036   3.868   1.023
 1668W        W 2665   2.112   6.221   4.236
 1669W        W 2666   3.852   3.025   1.763
 1670W        W 2667   6.383   1.554   7.511
 1671W        W 2668   3.671   7.465   4.715
 1672W        W 2669   4.329   4.651   0.978
 1673W        W 2670   0.715   6.990   4.646
 1674W        W 2671   4.883   4.704   7.157
 1675W        W 2672   0.548   2.462   1.569
 1676W        W 2673   4.487   5.047   1.235
 1677W        W 2674   2.172   6.763   0.433
 1678W        W 2675   2.230   5.879   0.403
 1679W        W 2676   1.522   4.102   4.276
 1680W        W 2677   0.988   3.514   5.086
 1681W        W 2678   6.074   4.177   2.809
 1682W        W 2679   6.735   0.824   0.649
 1683W        W 2680   4.665   1.165   0.297
 1684W        W 2681   0.621   6.282   2.585
 1685W        W 2682   4.929   5.654   6.654
 1686W        W 2683   4.505   1.092   6.669
 1687W        W 2684   0.290   6.139   6.042
 1688W        W 2685   7.285   7.605   3.871
 1689W        W 2686   5.580   7.423   4.392
 1690W        W 2687   5.787   1.949   5.289
 1691W        W 2688   3.972   0.976   2.861
 1692W        W 2689   7.447   6.249   5.807
 1693W        W 2690   2.034   0.786   1.824
 1694W        W 2691   4.717   4.169   0.270
 1695W        W 2692   1.368   7.756   1.100
 1696W        W 2693   4.551   5.998   4.611
 1697W        W 2694   1.355   7.960   7.427
 1698W        W 2695   5.969   2.937   7.246
 1699W        W 2696   3.856   3.053   6.327
 1700W        W 2697   2.370   6.774   1.299
 1701W        W 2698   7.390   6.099   1.076
 1702W        W 2699   3.657   1.297   6.978
 1703W        W 2700   3.032   2.300   0.911
 1704W        W 2701   3.076   6.488   3.479
 1705W        W 2702   3.312   3.741   7.089
 1706W        W 2703   3.918   2.826   0.213
 1707W        W 2704   4.656   6.791   7.052
 1708W        W 2705   3.806   6.906   2.221
 1709W        W 2706   7.464   4.337   1.413
 1710W        W 2707   6.781   5.229   7.787
 1711W        W 2708   0.824   4.641   7.502
 1712W        W 2709   3.539   2.936   6.742
 1713W        W 2710   0.574   4.829   6.865
 1714W        W 2711   0.809   6.249   6.416
 1715W        W 2712   1.505   1.445   5.910
 1716W        W 2713   2.334   4.612   3.045
 1717W        W 2714   6.421   3.439   1.378
 1718W        W 2715   5.718   6.797   7.143
 1719W        W 2716   4.141   2.110   4.654
 1720W        W 2717   3.156   3.795   2.145
 1721W        W 2718   7.699   6.299   0.657
 1722W        W 2719   5.039   2.898   5.793
 1723W        W 2720   1.000   2.528   3.516
 1724W        W 2721   5.976   1.385   1.665
 1725W        W 2722   7.434   7.999   7.757
 1726W        W 2723   6.953   3.751   4.740
 1727W        W 2724   3.286   7.186   5.262
 1728W        W 2725   3.228   1.384   4.333
 1729W        W 2726   4.507   1.992   3.671
 1730W        W 2727   2.732   1.795   4.676
 1731W        W 2728   6.096   7.198   1.694
 1732W        W 2729   3.501   5.123   1.203
 1733W        W 2730   0.218   3.341   0.548
 1734W        W 2731   6.651   5.012   3.663
 1735W        W 2732   3.839   5.018   1.902
 1736W        W 2733   6.737   1.683   5.535
 1737W        W 2734   2.236   1.807   3.504
 1738W        W 2735   3.303   4.917   6.917
 1739W        W 2736   6.465   4.263   1.682
 1740W        W 2737   4.609   3.604   7.491
 1741W        W 2738   0.145   7.014   7.565
 1742W        W 2739   5.795   7.642   5.286
 1743W        W 2740   1.076   6.421   0.699
 1744W        W 2741   4.283   4.278   0.635
 1745W        W 2742   3.646   5.627   4.519
 1746W        W 2743   7.584   1.423   3.453
 1747W        W 2744   5.750   0.903   2.899
 1748W        W 2745   1.268   3.395   4.717
 1749W        W 2746   4.620   4.195   1.225
 1750W        W 2747   0.701   2.712   7.109
 1751W        W 2748   0.211   6.146   2.027
 1752W        W 2749   3.319   6.605   1.799
 1753W        W 2750   0.096   0.840   5.805
 1754W        W 2751   3.081   6.574   6.422
 1755W        W 2752   0.478   5.827   0.451
 1756W        W 2753   1.130   4.680   3.813
 1757W        W 2754   5.034   5.779   4.941
 1758W        W 2755   0.993   4.627   2.170
 1759W        W 2756   1.239   3.952   2.832
 1760W        W 2757   6.219   3.480   1.869
 1761W        W 2758   0.039   1.014   4.501
 1762W        W 2759   3.275   5.192   5.873
 1763W        W 2760   1.488   3.470   6.015
 1764W        W 2761   1.212   4.380   1.303
 1765W        W 2762   6.844   4.263   6.637
 1766W        W 2763   1.089   6.075   1.719
 1767W        W 2764   0.263   5.949   2.745
 1768W        W 2765   4.371   5.161   7.115
 1769W        W 2766   2.051   0.698   1.134
 1770W        W 2767   5.958   1.234   0.640
 1771W        W 2768   3.764   1.533   2.223
 1772W        W 2769   5.474   0.387   4.764
 1773W        W 2770   7.461   4.369   3.499
 1774W        W 2771   5.412   4.293   0.654
 1775W        W 2772   5.084   2.527   6.522
 1776W        W 2773   1.216   2.837   3.160
 1777W        W 2774   3.278   0.957   6.817
 1778W        W 2775   7.207   7.464   0.255
 1779W        W 2776   5.989   2.246   0.315
 1780W        W 2777   7.474   4.896   3.837
 1781W        W 2778   0.162   5.335   3.125
 1782W        W 2779   0.639   0.516   3.984
 1783W        W 2780   5.772   5.408   1.892
 1784W        W 2781   0.563   6.360   6.866
 1785W        W 2782   1.679   3.131   3.960
 1786W        W 2783   4.232   7.719   1.172
 1787W        W 2784   0.231   0.396   6.987
 1788W        W 2785   4.848   2.928   6.281
 1789W        W 2786   1.862   5.139   2.330
 1790W        W 2787   5.347   1.805   7.285
 1791W        W 2788   5.484   5.382   1.431
 1792W        W 2789   4.147   1.825   2.859
 1793W        W 2790   2.121   5.639   6.736
 1794W        W 2791   0.173   6.455   2.522
 1795W        W 2792   5.135   4.834   0.711
 1796W        W 2793   3.278   2.746   0.980
 1797W        W 2794   0.910   2.543   2.820
 1798W        W 2795   7.288   0.628   2.954
 1799W        W 2796   6.087   0.257   5.507
 1800W        W 2797   1.905   5.102   4.144
 1801W        W 2798   6.699   5.577   6.068
 1802W        W 2799   1.514   6.414   4.897
 1803W        W 2800   3.148   2.064   6.582
 1804W        W 2801   7.590   4.065   6.029
 1805W        W 2802   7.778   2.212   3.494
 1806W        W 2803   2.633   6.592   6.671
 1807W        W 2804   3.049   3.194   0.397
 1808W        W 2805   7.161   2.308   6.846
 1809W        W 2806   5.751   4.509   2.904
 1810W        W 2807   1.516   6.114   0.282
 1811W        W 2808   2.008   2.416   2.989
 1812W        W 2809   6.247   5.436   5.905
 1813W        W 2810   6.622   0.755   5.958
 1814W        W 2811   1.246   4.714   4.776
 1815W        W 2812   2.197   0.056   1.894
 1816W        W 2813   2.090   3.210   2.385
 1817W        W 2814   3.004   6.184   6.099
 1818W        W 2815   1.817   4.992   1.822
 1819W        W 2816   4.865   2.099   6.601
 1820W        W 2817   6.064   3.808   1.584
 1821W        W 2818   5.454   0.482   0.221
 1822W        W 2819   3.931   4.829   6.378
 1823W        W 2820   4.324   1.275   2.658
 1824W        W 2821   6.648   5.476   3.956
 1825W        W 2822   3.206   0.200   7.426
 1826W        W 2823   3.348   5.392   4.159
 1827W        W 2824   6.829   1.081   2.116
 1828W        W 2825   3.873   3.403   4.280
 1829W        W 2826   0.250   5.444   2.615
 1830W        W 2827   2.171   3.129   1.158
 1831W        W 2828   0.761   5.834   1.365
 1832W        W 2829   6.924   5.663   7.516
 1833W        W 2830   0.252   6.321   5.505
 1834W        W 2831   0.999   1.575   1.240
 1835W        W 2832   2.669   5.857   0.711
 1836W        W 2833   2.109   6.761   4.220
 1837W        W 2834   1.855   0.008   4.644
 1838W        W 2835   1.808   0.282   6.695
 1839W        W 2836   4.581   3.576   0.203
 1840W        W 2837   1.275   3.983   5.953
 1841W        W 2838   7.166   7.340   7.073
 1842W        W 2839   4.955   7.670   5.810
 1843W        W 2840   6.068   6.120   1.895
 1844W        W 2841   3.845   4.224   0.864
 1845W        W 2842   3.553   7.069   3.098
 1846W        W 2843   0.902   5.098   5.379
 1847W        W 2844   0.218   5.814   7.459
 1848W        W 2845   7.382   1.826   7.628
 1849W        W 2846   7.585   2.101   4.553
 1850W        W 2847   0.652   1.996   3.002
 1851W        W 2848   3.335   7.377   3.873
 1852W        W 2849   1.988   3.482   3.790
 1853W        W 2850   6.986   1.091   7.327
 1854W        W 2851   6.021   2.005   3.662
 1855W        W 2852   3.232   3.637   1.184
 1856W        W 2853   7.208   6.114   2.773
 1857W        W 2854   2.496   3.248   1.568
 1858W        W 2855   5.125   4.333   6.740
 1859W        W 2856   4.933   3.135   0.230
 1860W        W 2857   2.226   5.983   3.793
 1861W        W 2858   3.987   5.360   6.617
 1862W        W 2859   6.694   0.054   2.632
 1863W        W 2860   4.480   4.619   1.488
 1864W        W 2861   7.046   1.351   2.748
 1865W        W 2862   3.568   5.426   3.695
 1866W        W 2863   1.183   2.925   4.479
 1867W        W 2864   5.804   2.326   4.417
 1868W        W 2865   2.756   1.468   7.538
 1869W        W 2866   2.851   1.354   4.767
 1870W        W 2867   4.930   2.152   0.417
 1871W        W 2868   1.365   5.575   2.878
 1872W        W 2869   5.550   0.934   0.903
 1873W        W 2870   2.230   4.743   2.211
 1874W        W 2871   1.994   3.242   5.618
 1875W        W 2872   7.504   0.718   2.275
 1876W        W 2873   3.090   7.742   7.182
 1877W        W 2874   4.484   4.262   1.770
 1878W        W 2875   2.129   7.321   4.267
 1879W        W 2876   1.609   5.640   1.037
 1880W        W 2877   6.337   6.748   3.548
 1881W        W 2878   2.731   3.539   2.157
 1882W        W 2879   4.734   1.451   7.433
 1883W        W 2880   7.606   6.997   3.671
 1884W        W 2881   5.458   7.250   7.553
 1885W        W 2882   5.494   0.598   4.215
 1886W        W 2883   4.716   6.765   3.543
 1887W        W 2884   1.042   4.241   4.080
 1888W        W 2885   0.779   0.999   0.453
 1889W        W 2886   5.931   6.818   6.623
 1890W        W 2887   1.308   3.509   7.007
 1891W        W 2888   1.600   0.992   1.243
 1892W        W 2889   1.279   7.200   7.412
 1893W        W 2890   1.781   2.625   1.639
 1894W        W 2891   2.386   7.083   7.388
 1895W        W 2892   3.090   7.656   1.864
 1896W        W 2893   4.389   6.038   6.102
 1897W        W 2894   3.083   3.534   2.502
 1898W        W 2895   1.068   6.386   6.983
 1899W        W 2896   5.890   4.705   6.356
 1900W        W 2897   1.229   0.181   0.542
 1901W        W 2898   1.669   5.554   4.272
 1902W        W 2899   1.354   1.459   6.841
 1903W        W 2900   1.082   0.725   7.076
 1904W        W 2901   0.538   5.265   0.141
 1905W        W 2902   3.837   6.798   3.835
 1906W        W 2903   4.247   6.437   7.319
 1907W        W 2904   7.244   0.813   4.263
 1908W        W 2905   5.303   5.041   3.127
 1909W        W 2906   3.117   3.294   7.520
 1910W        W 2907   2.739   3.922   6.057
 1911W        W 2908   0.376   5.804   6.950
 1912W        W 2909   1.110   3.821   1.276
 1913W        W 2910   0.104   6.058   0.834
 1914W        W 2911   5.507   5.082   5.500
 1915W        W 2912   3.947   3.026   4.696
 1916W        W 2913   5.989   6.834   2.167
 1917W        W 2914   1.529   5.814   1.707
 1918W        W 2915   6.769   6.851   5.832
 1919W        W 2916   4.725   0.042   3.589
 1920W        W 2917   7.475   1.578   0.488
 1921W        W 2918   3.558   2.223   5.276
 1922W        W 2919   1.804   0.351   5.506
 1923W        W 2920   6.088   4.661   1.547
 1924W        W 2921   5.630   6.787   1.121
 1925W        W 2922   4.373   0.793   0.964
 1926W        W 2923   4.092   1.777   3.399
 1927W        W 2924   0.644   2.928   1.359
 1928W        W 2925   6.453   3.035   7.293
 1929W        W 2926   6.258   2.288   0.773
 1930W        W 2927   7.704   1.951   6.328
 1931W        W 2928   5.886   0.027   5.063
 1932W        W 2929   0.372   2.585   6.091
 1933W        W 2930   0.018   7.813   7.121
 1934W        W 2931   7.154   1.682   3.069
 1935W        W 2932   1.773   5.616   6.378
 1936W        W 2933   1.019   1.694   5.050
 1937W        W 2934   2.013   0.075   6.290
 1938W        W 2935   7.173   7.619   3.381
 1939W        W 2936   7.083   1.412   3.457
 1940W        W 2937   2.583   0.053   0.162
 1941W        W 2938   7.267   2.039   4.888
 1942W        W 2939   5.544   1.009   4.693
 1943W        W 2940   1.641   7.805   5.591
 1944W        W 2941   5.860   1.826   3.177
 1945W        W 2942   4.464   2.025   0.416
 1946W        W 2943   1.119   1.322   1.653
 1947W        W 2944   1.498   6.300   7.258
 1948W        W 2945   7.880   4.695   2.447
 1949W        W 2946   1.089   0.951   6.147
 1950W        W 2947   7.939   7.609   1.269
 1951W        W 2948   7.814   6.561   6.840
 1952W        W 2949   4.192   6.397   4.677
 1953W        W 2950   0.905   2.939   1.780
 1954W        W 2951   1.069   1.086   6.610
 1955W        W 2952   2.942   1.370   0.471
 1956W        W 2953   7.490   3.705   5.539
 1957W        W 2954   3.392   6.196   5.279
 1958W        W 2955   6.058   4.792   2.478
 1959W        W 2956   2.781   0.949   5.994
 1960W        W 2957   6.084   7.280   4.401
 1961W        W 2958   6.257   2.546   7.049
 1962W        W 2959   3.231   4.870   3.951
 1963W        W 2960   2.786   2.278   2.540
 1964W        W 2961   3.359   7.246   2.620
 1965W        W 2962   1.111   5.001   6.637
 1966W        W 2963   4.808   0.959   5.238
 1967W        W 2964   6.547   1.250   2.513
 1968W        W 2965   3.953   4.801   4.660
 1969W        W 2966   3.942   5.517   7.113
 1970W        W 2967   2.064   5.285   4.671
 1971W        W 2968   0.980   5.934   6.746
 1972W        W 2969   2.474   4.554   3.569
 1973W        W 2970   4.230   3.791   5.564
 1974W        W 2971   7.683   7.643   1.674
 1975W        W 2972   4.058   2.877   5.157
 1976W        W 2973   2.263   0.605   6.523
 1977W        W 2974   0.232   0.842   4.000
 1978W        W 2975   6.693   0.490   2.870
 1979W        W 2976   2.684   4.019   1.933
 1980W        W 2977   1.815   1.539   3.692
 1981W        W 2978   2.143   5.431   0.147
 1982W        W 2979   6.948   5.099   0.420
 1983W        W 2980   4.020   3.477   7.739
 1984W        W 2981   2.827   0.854   6.900
 1985W        W 2982   7.252   3.724   3.317
 1986W        W 2983   4.949   4.012   3.649
 1987W        W 2984   0.939   2.608   1.054
 1988W        W 2985   6.930   3.290   1.548
 1989W        W 2986   5.167   2.924   7.698
 1990W        W 2987   6.875   2.443   7.941
 1991W        W 2988   2.224   7.372   2.325
 1992W        W 2989   6.595   7.303   4.501
 1993W        W 2990   7.065   3.438   6.826
 1994W        W 2991   2.483   2.831   2.485
 1995W        W 2992   4.043   3.532   1.679
 1996W        W 2993   7.006   7.441   1.834
 1997W        W 2994   6.145   3.224   7.673
 1998W        W 2995   5.229   1.415   3.787
 1999W        W 2996   7.013   5.180   2.507
 2000W        W 2997   2.883   2.815   3.299
 2001W        W 2998   4.945   3.942   1.648
 2002W        W 2999   6.393   6.526   5.815
 2003W        W 3000   2.329   1.970   4.965
 2004W        W 3001   1.610   4.718   1.373
 2005W        W 3002   1.421   4.692   0.411
 2006W        W 3003   5.711   2.009   6.919
 2007W        W 3004   3.969   2.968   3.260
 2008W        W 3005   0.714   2.734   4.520
 2009W        W 3006   0.744   3.989   0.786
 2010W        W 3007   0.895   3.346   2.040
 2011W        W 3008   3.964   0.095   7.596
 2012W        W 3009   6.964   1.535   2.299
 2013W        W 3010   1.916   6.162   6.509
 2014W        W 3011   0.810   3.740   4.701
 2015W        W 3012   3.886   2.596   6.532
 2016W        W 3013   4.173   0.688   4.726
 2017W        W 3014   6.142   3.025   2.139
 2018W        W 3015   0.879   4.754   4.268
 2019W        W 3016   2.978   5.242   6.632
 2020W        W 3017   7.896   6.912   3.206
 2021W        W 3018   5.367   4.123   7.115
 2022W        W 3019   6.887   0.308   4.326
 2023W        W 3020   6.764   7.893   6.301
 2024W        W 3021   2.869   5.454   3.157
 2025W        W 3022   6.847   7.061   6.775
 2026W        W 3023   5.428   4.338   6.311
 2027W        W 3024   0.696   2.593   5.201
 2028W        W 3025   4.785   7.683   3.005
 2029W        W 3026   3.725   7.776   2.289
 2030W        W 3027   3.485   1.510   4.750
 2031W        W 3028   6.052   5.610   7.202
 2032W        W 3029   5.622   2.695   7.608
 2033W        W 3030   5.561   2.458   2.033
 2034W        W 3031   0.203   4.385   2.512
 2035W        W 3032   7.213   2.023   6.405
 2036W        W 3033   3.345   1.759   6.980
 2037W        W 3034   0.897   2.437   1.927
 2038W        W 3035   6.744   5.944   5.570
 2039W        W 3036   3.267   7.841   2.957
 2040W        W 3037   4.155   3.388   0.822
 2041W        W 3038   1.011   4.268   3.553
 2042W        W 3039   4.041   0.098   2.881
 2043W        W 3040   1.931   5.643   1.890
 2044W        W 3041   5.150   4.302   1.191
 2045W        W 3042   2.904   0.136   3.613
 2046W        W 3043   7.346   5.819   4.287
 2047W        W 3044   3.982   0.049   1.331
 2048W        W 3045   0.950   7.602   7.897
 2049W        W 3046   2.175   4.301   4.528
 2050W        W 3047   4.747   2.482   2.916
 2051W        W 3048   5.490   1.311   1.813
 2052W        W 3049   1.715   3.751   2.946
 2053W        W 3050   1.969   0.800   7.492
 2054W        W 3051   4.339   5.586   4.381
 2055W        W 3052   5.755   4.057   4.010
 2056W        W 3053   3.614   5.681   6.101
 2057W        W 3054   6.375   0.152   3.029
 2058W        W 3055   6.007   2.726   6.585
 2059W        W 3056   0.631   2.561   6.552
 2060W        W 3057   6.940   7.160   3.148
 2061W        W 3058   2.343   4.822   4.155
 2062W        W 3059   0.904   0.203   6.894
 2063W        W 3060   6.977   2.464   1.216
 2064W        W 3061   4.050   4.918   1.443
 2065W        W 3062   1.003   7.335   3.802
 2066W        W 3063   7.680   2.976   3.495
 2067W        W 3064   7.041   7.097   7.540
 2068W        W 3065   0.184   4.545   7.415
 2069W        W 3066   2.768   0.619   3.835
 2070W        W 3067   2.150   0.807   5.092
 2071W        W 3068   5.449   2.810   6.303
 2072W        W 3069   1.060   6.492   1.365
 2073W        W 3070   5.555   7.621   7.290
 2074W        W 3071   6.516   0.704   5.207
 2075W        W 3072   7.685   3.752   0.675
 2076W        W 3073   7.342   4.455   4.127
 2077W        W 3074   0.872   0.546   1.706
 2078W        W 3075   7.572   0.771   0.087
 2079W        W 3076   3.516   5.082   0.621
 2080W        W 3077   5.756   2.698   0.226
 2081W        W 3078   1.899   2.264   4.275
 2082W        W 3079   6.558   6.847   0.143
 2083W        W 3080   0.443   7.415   7.157
 2084W        W 3081   1.786   7.842   0.605
 2085W        W 3082   1.247   2.453   5.273
 2086W        W 3083   7.451   7.665   4.820
 2087W        W 3084   1.708   0.644   5.006
 2088W        W 3085   2.120   6.678   2.532
 2089W        W 3086   4.331   5.525   0.889
 2090W        W 3087   2.074   1.051   0.724
 2091W        W 3088   7.492   0.128   5.132
 2092W        W 3089   6.397   7.263   3.116
 2093W        W 3090   5.363   1.553   5.650
 2094W        W 3091   5.110   0.027   7.707
 2095W        W 3092   3.310   5.472   0.875
 2096W        W 3093   5.725   3.801   4.419
 2097W        W 3094   4.911   1.143   4.080
 2098W        W 3095   3.717   5.742   5.093
 2099W        W 3096   4.792   2.132   4.068
 2100W        W 3097   7.123   6.255   4.071
 2101W        W 3098   7.317   7.223   4.236
 2102W        W 3099   1.492   0.154   5.789
 2103W        W 3100   0.327   2.872   7.453
 2104W        W 3101   2.571   4.005   2.386
 2105W        W 3102   6.944   3.436   0.304
 2106W        W 3103   6.871   3.910   6.229
 2107W        W 3104   2.419   6.278   0.534
 2108W        W 3105   2.330   4.349   0.738
 2109W        W 3106   5.207   3.082   6.648
 2110W        W 3107   3.010   2.529   6.167
 2111W        W 3108   1.520   3.293   3.084
 2112W        W 3109   5.039   4.198   2.823
 2113W        W 3110   2.634   6.972   4.249
 2114W        W 3111   7.788   2.970   6.560
 2115W        W 3112   4.629   6.282   1.933
 2116W        W 3113   6.707   0.517   4.802
 2117W        W 3114   4.621   4.225   5.770
 2118W        W 3115   1.565   6.430   4.329
 2119W        W 3116   0.408   0.875   3.054
 2120W        W 3117   4.923   0.493   1.603
 2121W        W 3118   6.733   6.893   7.191
 2122W        W 3119   5.080   6.180   0.174
 2123W        W 3120   1.728   0.347   1.988
 2124W        W 3121   1.136   2.339   1.479
 2125W        W 3122   4.916   3.628   2.192
 2126W        W 3123   6.431   2.981   4.706
 2127W        W 3124   4.453   1.194   1.762
 2128W        W 3125   3.291   6.397   4.633
 2129W        W 3126   6.050   6.236   2.412
 2130W        W 3127   3.663   7.116   1.159
 2131W        W 3128   0.132   4.937   6.495
 2132W        W 3129   1.314   4.224   6.464
 2133W        W 3130   7.719   2.776   5.212
 2134W        W 3131   6.565   1.234   0.507
 2135W        W 3132   6.858   0.999   4.632
 2136W        W 3133   6.632   4.112   7.472
 2137W        W 3134   4.568   6.102   7.586
 2138W        W 3135   1.793   7.700   4.061
 2139W        W 3136   0.518   0.560   5.704
 2140W        W 3137   7.566   3.554   1.996
 2141W        W 3138   5.144   0.091   0.880
 2142W        W 3139   5.644   4.654   5.854
 2143W        W 3140   6.440   5.876   3.756
 2144W        W 3141   7.455   4.821   1.507
 2145W        W 3142   7.360   2.670   0.803
 2146W        W 3143   7.054   1.237   0.668
 2147W        W 3144   3.747   0.504   7.963
 2148W        W 3145   0.305   2.608   4.757
 2149W        W 3146   3.042   6.882   7.897
 2150W        W 3147   4.836   0.914   2.460
 2151W        W 3148   4.485   1.081   3.947
 2152W        W 3149   7.461   0.564   5.467
 2153W        W 3150   1.196   2.100   3.814
 2154W        W 3151   2.814   2.144   1.301
 2155W        W 3152   3.531   2.557   3.964
 2156W        W 3153   4.115   3.401   3.527
 2157W        W 3154   4.010   0.363   7.172
 2158W        W 3155   2.665   1.281   2.603
 2159W        W 3156   4.643   2.299   1.643
 2160W        W 3157   5.734   6.775   3.586
 2161W        W 3158   3.903   3.805   0.033
 2162W        W 3159   1.245   1.892   7.627
 2163W        W 3160   1.369   0.912   4.711
 2164W        W 3161   3.060   7.139   1.803
 2165W        W 3162   0.136   7.306   4.068
 2166W        W 3163   7.712   2.916   1.059
 2167W        W 3164   6.502   4.965   6.060
 2168W        W 3165   3.713   3.025   7.632
 2169W        W 3166   1.917   1.758   4.161
 2170W        W 3167   6.005   5.173   6.258
 2171W        W 3168   6.293   5.731   2.574
 2172W        W 3169   6.605   0.380   5.674
 2173W        W 3170   1.946   6.233   2.305
 2174W        W 3171   6.194   2.331   4.114
 2175W        W 3172   7.197   7.111   5.707
 2176W        W 3173   3.845   7.229   3.597
 2177W        W 3174   3.094   5.030   7.484
 2178W        W 3175   1.483   2.462   2.911
 2179W        W 3176   7.127   5.552   6.250
 2180W        W 3177   6.832   3.459   3.281
 2181W        W 3178   7.644   1.662   4.360
 2182W        W 3179   2.259   4.979   2.707
 2183W        W 3180   1.927   5.742   3.512
 2184W        W 3181   4.527   7.290   3.814
 2185W        W 3182   4.809   7.388   6.248
 2186W        W 3183   1.508   0.918   0.706
 2187W        W 3184   6.239   7.153   2.653
 2188W        W 3185   6.896   5.240   6.613
 2189W        W 3186   6.414   5.671   0.829
 2190W        W 3187   4.150   6.563   3.433
 2191W        W 3188   5.853   5.479   3.467
 2192W        W 3189   1.676   0.131   1.333
 2193W        W 3190   6.952   7.493   2.838
 2194W        W 3191   6.462   3.965   1.228
 2195W        W 3192   1.542   2.613   4.929
 2196W        W 3193   6.478   7.410   2.230
 2197W        W 3194   2.854   6.739   5.971
 2198W        W 3195   4.171   7.735   0.390
 2199W        W 3196   6.433   1.727   2.370
 2200W        W 3197   3.951   3.773   3.846
 2201W        W 3198   3.476   6.216   6.247
 2202W        W 3199   4.144   1.086   0.563
 2203W        W 3200   5.976   4.273   1.778
 2204W        W 3201   4.231   3.468   6.724
 2205W        W 3202   7.483   5.725   2.533
 2206W        W 3203   4.136   3.286   2.536
 2207W        W 3204   0.953   1.296   4.738
 2208W        W 3205   4.059   6.338   7.776
 2209W        W 3206   5.764   7.248   1.329
 2210W        W 3207   4.039   0.591   4.170
 2211W        W 3208   2.926   2.115   7.123
 2212W        W 3209   2.376   4.450   5.033
 2213W        W 3210   2.247   4.159   6.946
 2214W        W 3211   5.390   3.030   1.382
 2215W        W 3212   6.106   2.278   6.644
 2216W        W 3213   2.685   5.626   4.663
 2217W        W 3214   4.984   1.447   5.905
 2218W        W 3215   7.443   7.093   3.193
 2219W        W 3216   5.739   3.897   4.912
 2220W        W 3217   1.410   4.859   2.240
 2221W        W 3218   4.997   3.088   4.195
 2222W        W 3219   2.423   0.289   3.616
 2223W        W 3220   1.099   2.567   4.093
 2224W        W 3221   1.967   3.293   3.298
 2225W        W 3222   1.714   3.865   5.086
 2226W        W 3223   6.123   4.246   6.524
 2227W        W 3224   7.133   3.427   5.196
 2228W        W 3225   1.780   2.873   2.126
 2229W        W 3226   6.670   6.111   7.621
 2230W        W 3227   0.292   7.669   4.888
 2231W        W 3228   7.219   4.737   3.237
 2232W        W 3229   7.135   7.534   6.400
 2233W        W 3230   4.574   3.697   5.924
 2234W        W 3231   2.107   2.008   0.655
 2235W        W 3232   6.875   3.095   0.971
 2236W        W 3233   5.652   6.236   1.100
 2237W        W 3234   3.255   7.550   6.398
 2238W        W 3235   3.218   6.107   1.907
 2239W        W 3236   6.686   6.003   4.203
 2240W        W 3237   1.544   0.199   5.038
 2241W        W 3238   1.450   0.460   4.087
 2242W        W 3239   2.841   6.672   1.246
 2243W        W 3240   1.278   3.882   4.863
 2244W        W 3241   5.001   5.580   7.208
 2245W        W 3242   6.966   4.513   7.226
 2246W        W 3243   4.330   1.230   4.911
 2247W        W 3244   3.341   5.430   3.134
 2248W        W 3245   1.903   2.693   0.976
 2249W        W 3246   5.820   0.175   0.058
 2250W        W 3247   0.478   6.759   5.044
 2251W        W 3248   5.564   5.823   5.305
 2252W        W 3249   4.043   5.097   0.883
 2253W        W 3250   5.302   6.684   0.721
 2254W        W 3251   5.586   1.293   3.450
 2255W        W 3252   0.690   5.426   4.971
 2256W        W 3253   3.209   1.862   4.540
 2257W        W 3254   1.488   5.189   6.388
 2258W        W 3255   1.044   1.307   4.171
 2259W        W 3256   3.809   7.745   2.842
 2260W        W 3257   6.523   5.783   7.263
 2261W        W 3258   3.752   0.503   6.073
 2262W        W 3259   7.441   5.738   4.790
 2263W        W 3260   0.513   1.830   4.811
 2264W        W 3261   3.101   5.711   1.584
 2265W        W 3262   5.246   2.146   3.864
 2266W        W 3263   6.967   2.028   1.001
 2267W        W 3264   2.406   5.881   1.700
 2268W        W 3265   4.833   2.440   3.589
 2269W        W 3266   3.858   0.726   2.009
 2270W        W 3267   1.931   6.158   1.784
 2271W        W 3268   2.208   0.347   1.461
 2272W        W 3269   5.854   4.893   3.268
 2273W        W 3270   1.214   5.196   5.003
 2274W        W 3271   2.459   0.814   2.590
 2275W        W 3272   6.746   2.628   6.981
 2276W        W 3273   7.754   1.383   6.869
 2277W        W 3274   3.599   4.221   3.202
 2278W        W 3275   4.835   6.475   6.102
 2279W        W 3276   2.079   7.093   2.774
 2280W        W 3277   0.333   0.955   2.018
 2281W        W 3278   6.668   1.202   5.647
 2282W        W 3279   5.373   4.605   5.382
 2283W        W 3280   4.640   3.769   4.008
 2284W        W 3281   1.031   7.581   2.617
 2285W        W 3282   1.216   3.720   3.284
 2286W        W 3283   6.590   5.412   2.234
 2287W        W 3284   6.456   1.651   3.801
 2288W        W 3285   6.677   7.587   0.570
 2289W        W 3286   4.944   2.586   4.064
 2290W        W 3287   4.989   1.796   3.641
 2291W        W 3288   5.051   0.339   4.028
 2292W        W 3289   3.642   3.473   2.554
 2293W        W 3290   3.650   0.017   5.881
 2294W        W 3291   1.544   5.166   0.676
 2295W        W 3292   4.218   7.699   3.800
 2296W        W 3293   0.378   6.253   4.988
 2297W        W 3294   7.775   6.169   2.697
 2298W        W 3295   6.416   1.033   4.864
 2299W        W 3296   6.368   3.887   6.190
 2300W        W 3297   1.510   2.028   4.292
 2301W        W 3298   0.429   1.961   2.520
 2302W        W 3299   4.657   2.781   7.385
 2303W        W 3300   1.677   1.401   4.370
 2304W        W 3301   2.210   7.171   6.605
 2305W        W 3302   2.523   4.450   1.529
 2306W        W 3303   7.815   3.313   6.166
 2307W        W 3304   6.936   1.818   5.127
 2308W        W 3305   6.375   5.073   3.197
 2309W        W 3306   0.129   3.465   3.483
 2310W        W 3307   7.636   6.668   2.387
 2311W        W 3308   6.046   2.979   1.639
 2312W        W 3309   2.842   3.989   1.144
 2313W        W 3310   1.386   7.552   7.050
 2314W        W 3311   3.608   5.888   6.603
 2315W        W 3312   3.419   3.750   6.563
 2316W        W 3313   2.489   5.551   3.482
 2317W        W 3314   7.345   7.023   2.639
 2318W        W 3315   1.671   1.758   0.733
 2319W        W 3316   4.665   0.310   2.633
 2320W        W 3317   0.728   5.926   4.751
 2321W        W 3318   7.587   2.137   1.851
 2322W        W 3319   1.426   4.453   7.332
 2323W        W 3320   1.582   1.811   6.262
 2324W        W 3321   7.780   3.028   2.000
 2325W        W 3322   6.228   5.542   5.016
 2326W        W 3323   2.889   1.781   2.951
 2327W        W 3324   6.794   5.913   0.044
 2328W        W 3325   3.016   0.458   6.063
 2329W        W 3326   4.167   2.570   2.006
 2330W        W 3327   7.516   3.142   2.407
 2331W        W 3328   6.396   3.310   4.315
 2332W        W 3329   4.122   0.905   3.715
 2333W        W 3330   6.085   6.156   1.349
 2334W        W 3331   5.216   2.380   5.041
 2335W        W 3332   3.280   5.508   2.105
 2336W        W 3333   2.648   4.766   7.577
 2337W        W 3334   1.845   4.741   3.263
 2338W        W 3335   7.701   6.138   2.143
 2339W        W 3336   5.475   5.899   7.382
 2340W        W 3337   1.669   4.319   6.824
 2341W        W 3338   3.161   6.835   0.380
 2342W        W 3339   0.737   3.278   4.419
 2343W        W 3340   2.713   1.525   3.347
 2344W        W 3341   4.017   1.925   0.666
 2345W        W 3342   2.654   5.614   5.578
 2346W        W 3343   0.277   2.676   4.247
 2347W        W 3344   0.895   0.387   2.244
 2348W        W 3345   1.253   7.497   6.562
 2349W        W 3346   2.128   1.851   0.100
 2350W        W 3347   0.079   3.171   7.051
 2351W        W 3348   2.124   1.533   0.523
 2352W        W 3349   1.473   0.910   7.377
 2353W        W 3350   5.721   2.465   5.275
 2354W        W 3351   7.246   2.710   7.094
 2355W        W 3352   2.497   2.480   7.671
 2356W        W 3353   0.382   2.418   2.772
 2357W        W 3354   6.748   0.224   3.354
 2358W        W 3355   7.149   4.594   1.848
 2359W        W 3356   7.420   6.188   3.252
 2360W        W 3357   2.365   4.870   1.741
 2361W        W 3358   2.344   5.361   3.023
 2362W        W 3359   4.668   2.637   5.943
 2363W        W 3360   5.416   0.299   1.415
 2364W        W 3361   0.714   0.625   1.251
 2365W        W 3362   6.664   1.625   4.260
 2366W        W 3363   6.093   2.588   7.528
 2367W        W 3364   0.735   2.176   3.923
 2368W        W 3365   2.472   4.007   7.906
 2369W        W 3366   5.545   7.827   1.351
 2370W        W 3367   0.124   0.319   5.971
 2371W        W 3368   6.416   1.162   0.953
 2372W        W 3369   0.616   5.456   4.477
 2373W        W 3370   4.770   0.497   1.006
 2374W        W 3371   6.089   6.457   7.037
 2375W        W 3372   4.948   4.407   4.291
 2376W        W 3373   4.021   0.525   1.183
 2377W        W 3374   6.944   0.792   2.590
 2378W        W 3375   1.874   6.790   5.058
 2379W        W 3376   5.809   3.002   6.001
 2380W        W 3377   1.058   6.603   5.652
 2381W        W 3378   5.939   0.068   0.571
 2382W        W 3379   5.789   1.072   3.986
 2383W        W 3380   1.422   7.697   1.736
 2384W        W 3381   0.399   6.776   7.109
 2385W        W 3382   2.339   1.238   5.069
 2386W        W 3383   2.571   6.662   5.562
 2387W        W 3384   1.515   5.928   3.133
 2388W        W 3385   0.048   2.331   1.604
 2389W        W 3386   5.876   3.898   5.409
 2390W        W 3387   1.970   3.726   1.046
 2391W        W 3388   6.328   3.468   2.389
 2392W        W 3389   7.739   4.039   4.773
 2393W        W 3390   7.054   3.440   6.324
 2394W        W 3391   0.449   6.542   6.282
 2395W        W 3392   3.318   0.495   0.563
 2396W        W 3393   4.597   5.111   0.743
 2397W        W 3394   1.876   1.648   5.698
 2398W        W 3395   6.973   7.115   6.179
 2399W        W 3396   0.422   0.924   4.851
 2400W        W 3397   3.531   5.749   1.316
 2401W        W 3398   5.920   3.782   2.504
 2402W        W 3399   4.475   6.827   5.437
 2403W        W 3400   1.503   1.777   7.208
 2404W        W 3401   6.714   0.337   0.696
 2405W        W 3402   3.046   5.043   3.254
 2406W        W 3403   3.563   3.407   1.516
 2407W        W 3404   0.611   1.831   6.543
 2408W        W 3405   6.870   7.807   7.817
 2409W        W 3406   1.387   1.882   1.261
 2410W        W 3407   0.260   2.685   6.922
 2411W        W 3408   1.723   7.499   2.662
 2412W        W 3409   5.693   3.337   6.945
 2413W        W 3410   1.849   1.647   2.752
 2414W        W 3411   1.766   0.051   7.825
 2415W        W 3412   2.558   7.414   1.910
 2416W        W 3413   0.105   3.608   2.334
 2417W        W 3414   0.006   4.725   1.240
 2418W        W 3415   5.667   1.540   7.806
 2419W        W 3416   5.573   7.132   2.179
 2420W        W 3417   3.560   7.734   1.169
 2421W        W 3418   7.490   5.391   5.845
 2422W        W 3419   2.977   3.056   5.062
 2423W        W 3420   0.345   7.358   4.519
 2424W        W 3421   6.805   5.598   0.408
 2425W        W 3422   7.418   0.932   6.603
 2426W        W 3423   6.976   0.385   5.312
 2427W        W 3424   7.733   5.711   0.834
 2428W        W 3425   2.811   0.996   3.451
 2429W        W 3426   0.812   1.661   2.568
 2430W        W 3427   4.363   5.885   3.957
 2431W        W 3428   3.529   3.205   7.190
 2432W        W 3429   5.164   0.648   5.404
 2433W        W 3430   4.376   6.682   0.408
 2434W        W 3431   1.649   6.723   0.546
 2435W        W 3432   3.604   2.147   6.891
 2436W        W 3433   0.497   7.269   5.866
 2437W        W 3434   1.307   0.519   7.608
 2438W        W 3435   3.632   4.877   5.559
 2439W        W 3436   6.402   2.012   1.215
 2440W        W 3437   6.800   6.619   4.339
 2441W        W 3438   7.448   2.473   3.769
 2442W        W 3439   5.906   1.622   7.385
 2443W        W 3440   3.027   5.059   0.292
 2444W        W 3441   5.255   0.737   2.779
 2445W        W 3442   1.573   6.450   1.006
 2446W        W 3443   5.969   5.424   0.189
 2447W        W 3444   2.864   7.593   2.671
 2448W        W 3445   2.968   3.367   1.743
 2449W        W 3446   5.937   4.965   0.338
 2450W        W 3447   0.337   0.353   1.144
 2451W        W 3448   0.361   1.744   7.038
 2452W        W 3449   5.234   1.069   5.671
 2453W        W 3450   4.977   0.911   0.710
 2454W        W 3451   6.265   4.616   0.497
 2455W        W 3452   0.693   2.947   6.170
 2456W        W 3453   0.556   1.485   3.769
 2457W        W 3454   5.365   5.581   1.020
 2458W        W 3455   5.735   7.279   4.881
 2459W        W 3456   0.565   5.424   2.066
 2460W        W 3457   6.424   0.415   7.258
 2461W        W 3458   3.671   0.622   3.031
 2462W        W 3459   1.914   5.865   0.026
 2463W        W 3460   1.423   7.909   2.635
 2464W        W 3461   2.742   3.623   7.659
 2465W        W 3462   2.320   0.459   7.355
 2466W        W 3463   7.126   4.794   0.006
 2467W        W 3464   2.188   4.181   5.445
 2468W        W 3465   4.994   5.218   1.131
 2469W        W 3466   2.401   7.662   2.614
 2470W        W 3467   2.496   0.292   6.236
 2471W        W 3468   2.027   6.950   7.004
 2472W        W 3469   5.732   7.474   3.623
 2473W        W 3470   7.351   5.460   0.594
 2474W        W 3471   4.112   5.575   5.922
 2475W        W 3472   6.792   3.656   4.180
 2476W        W 3473   4.207   2.737   1.044
 2477W        W 3474   3.397   7.189   6.759
 2478W        W 3475   1.558   7.899   6.714
 2479W        W 3476   4.589   4.633   0.505
 2480W        W 3477   6.606   0.809   6.475
 2481W        W 3478   3.922   1.346   3.645
 2482W        W 3479   7.095   3.638   1.883
 2483W        W 3480   3.593   1.170   1.919
 2484W        W 3481   2.097   5.184   6.334
 2485W        W 3482   1.702   3.344   5.098
 2486W        W 3483   5.229   7.800   4.676
 2487W        W 3484   4.772   6.931   2.233
 2488W        W 3485   6.422   1.648   5.957
 2489W        W 3486   5.718   2.274   3.918
 2490W        W 3487   5.662   4.097   6.666
 2491W        W 3488   1.393   2.884   0.928
 2492W        W 3489   3.058   2.220   2.966
 2493W        W 3490   0.782   4.666   5.703
 2494W        W 3491   5.589   7.199   3.195
 2495W        W 3492   5.912   6.695   5.431
 2496W        W 3493   6.210   6.125   0.825
 2497W        W 3494   4.046   4.061   1.727
 2498W        W 3495   3.890   2.319   1.078
 2499W        W 3496   0.234   1.455   4.714
 2500W        W 3497   5.437   7.804   5.547
 2501W        W 3498   4.380   7.188   1.236
 2502W        W 3499   7.499   0.765   1.802
 2503W        W 3500   2.671   1.025   0.761
 2504W        W 3501   0.570   7.420   0.092
 2505W        W 3502   7.607   1.091   5.214
 2506W        W 3503   5.702   2.681   2.897
 2507W        W 3504   5.216   4.017   4.122
 2508W        W 3505   0.159   5.154   6.984
 2509W        W 3506   5.437   1.667   5.133
 2510W        W 3507   1.156   7.763   4.077
 2511W        W 3508   2.675   1.722   1.055
 2512W        W 3509   6.451   5.179   0.423
 2513W        W 3510   1.880   6.525   1.425
 2514W        W 3511   4.205   2.435   0.133
 2515W        W 3512   3.630   3.316   3.366
 2516W        W 3513   2.681   5.839   6.015
 2517W        W 3514   1.731   4.155   1.392
 2518W        W 3515   6.251   4.524   3.358
 2519W        W 3516   2.871   3.415   5.350
 2520W        W 3517   0.198   5.841   5.600
 2521W        W 3518   6.189   2.807   3.303
 2522W        W 3519   2.589   2.262   0.769
 2523W        W 3520   0.083   7.937   2.788
 2524W        W 3521   1.427   7.550   7.745
 2525W        W 3522   2.446   2.640   0.448
 2526W        W 3523   2.270   7.639   3.887
 2527W        W 3524   0.281   1.747   3.311
 2528W        W 3525   5.383   6.156   3.094
 2529W        W 3526   3.305   6.341   6.872
 2530W        W 3527   5.276   7.496   3.361
 2531W        W 3528   2.683   4.563   2.004
 2532W        W 3529   6.428   5.386   6.414
 2533W        W 3530   4.001   7.482   5.566
 2534W        W 3531   1.161   0.759   2.502
 2535W        W 3532   3.474   1.128   1.159
 2536W        W 3533   1.960   1.695   1.705
 2537W        W 3534   7.498   5.787   5.313
 2538W        W 3535   3.669   1.598   1.698
 2539W        W 3536   6.566   6.957   1.403
 2540W        W 3537   5.279   4.300   5.811
 2541W        W 3538   2.570   5.866   3.061
 2542W        W 3539   5.530   4.333   4.443
 2543W        W 3540   3.939   6.346   6.518
 2544W        W 3541   5.311   5.943   1.339
 2545W        W 3542   4.580   5.062   2.598
 2546W        W 3543   4.038   4.363   2.595
 2547W        W 3544   1.036   2.117   4.309
 2548W        W 3545   1.007   4.147   7.490
 2549W        W 3546   2.507   5.349   1.600
 2550W        W 3547   5.623   3.214   3.584
 2551W        W 3548   4.386   1.266   6.179
 2552W        W 3549   2.690   0.122   7.272
 2553W        W 3550   5.972   0.220   7.443
 2554W        W 3551   7.751   4.845   6.838
 2555W        W 3552   3.636   5.054   7.798
 2556W        W 3553   2.852   5.828   2.154
 2557W        W 3554   1.063   1.896   1.708
 2558W        W 3555   3.314   3.757   3.485
 2559W        W 3556   3.992   2.676   3.703
 2560W        W 3557   7.847   6.382   4.938
 2561W        W 3558   6.192   1.503   5.375
 2562W        W 3559   7.272   5.695   3.401
 2563W        W 3560   1.524   2.580   4.421
 2564W        W 3561   6.971   1.765   6.738
 2565W        W 3562   3.514   5.623   2.727
 2566W        W 3563   5.407   0.866   7.115
 2567W        W 3564   7.586   2.940   2.819
 2568W        W 3565   2.941   3.943   5.629
 2569W        W 3566   6.937   2.368   2.131
 2570W        W 3567   2.582   6.225   0.985
 2571W        W 3568   5.544   1.766   3.837
 2572W        W 3569   6.619   1.096   7.711
 2573W        W 3570   2.931   3.060   2.293
 2574W        W 3571   1.123   7.188   4.267
 2575W        W 3572   2.894   2.756   0.642
 2576W        W 3573   6.963   6.473   7.093
 2577W        W 3574   2.811   7.005   5.059
 2578W        W 3575   0.876   7.198   7.053
 2579W        W 3576   5.157   6.276   1.024
 2580W        W 3577   7.417   4.170   5.291
 2581W        W 3578   6.913   4.042   7.070
 2582W        W 3579   7.773   5.127   4.943
 2583W        W 3580   6.335   5.809   0.360
 2584W        W 3581   4.672   6.359   0.959
 2585W        W 3582   4.944   0.346   4.545
 2586W        W 3583   7.732   1.634   1.085
 2587W        W 3584   1.000   5.871   6.157
 2588W        W 3585   3.535   5.832   7.183
 2589W        W 3586   4.285   1.510   0.373
 2590W        W 3587   6.059   7.050   0.013
 2591W        W 3588   2.436   1.738   1.533
 2592W        W 3589   0.779   4.868   6.282
 2593W        W 3590   3.260   4.584   3.289
 2594W        W 3591   1.338   5.068   4.095
 2595W        W 3592   4.436   4.952   4.700
 2596W        W 3593   1.404   2.020   2.185
 2597W        W 3594   5.132   2.349   6.064
 2598W        W 3595   2.704   7.130   1.074
 2599W        W 3596   3.938   2.545   4.599
 2600W        W 3597   1.451   5.430   3.326
 2601W        W 3598   1.892   7.075   6.058
 2602W        W 3599   3.305   6.248   3.908
 2603W        W 3600   5.047   1.882   4.796
 2604W        W 3601   7.404   4.451   6.934
 2605W        W 3602   2.539   1.081   3.998
 2606W        W 3603   5.602   1.385   0.253
 2607W        W 3604   5.429   3.434   7.437
 2608W        W 3605   4.773   4.473   2.067
 2609W        W 3606   6.054   0.955   2.444
 2610W        W 3607   0.097   5.353   7.504
 2611W        W 3608   6.928   6.967   5.344
 2612W        W 3609   1.612   1.833   0.224
 2613W        W 3610   4.544   4.298   2.798
 2614W        W 3611   3.662   7.024   7.143
 2615W        W 3612   7.754   2.915   4.730
 2616W        W 3613   1.880   7.500   6.780
 2617W        W 3614   1.968   1.488   6.143
 2618W        W 3615   3.397   2.205   7.298
 2619W        W 3616   2.638   5.580   2.656
 2620W        W 3617   6.586   7.082   1.879
 2621W        W 3618   4.848   0.703   3.729
 2622W        W 3619   3.136   6.729   2.686
 2623W        W 3620   2.348   4.055   1.148
 2624W        W 3621   0.843   4.232   3.082
 2625W        W 3622   0.961   3.154   7.178
 2626W        W 3623   0.508   2.250   4.451
 2627W        W 3624   6.508   3.033   1.689
 2628W        W 3625   5.181   0.446   6.438
 2629W        W 3626   4.795   2.756   5.034
 2630W        W 3627   3.099   7.176   5.902
 2631W        W 3628   5.938   5.882   3.728
 2632W        W 3629   3.253   7.249   7.232
 2633W        W 3630   3.636   7.107   4.286
 2634W        W 3631   2.627   2.178   0.225
 2635W        W 3632   4.636   2.873   3.803
 2636W        W 3633   0.430   5.011   7.394
 2637W        W 3634   0.863   5.963   2.829
 2638W        W 3635   7.716   4.485   2.925
 2639W        W 3636   3.848   3.998   2.857
 2640W        W 3637   3.340   2.351   1.299
 2641W        W 3638   6.099   2.473   1.796
 2642W        W 3639   7.255   5.264   7.623
 2643W        W 3640   5.202   0.037   2.373
 2644W        W 3641   4.008   3.318   0.342
 2645W        W 3642   0.901   0.212   2.792
 2646W        W 3643   3.132   4.363   5.842
 2647W        W 3644   0.499   4.755   1.322
 2648W        W 3645   5.062   5.024   3.872
 2649W        W 3646   0.352   3.961   6.317
 2650W        W 3647   4.965   1.280   1.954
 2651W        W 3648   3.070   7.349   3.021
 2652W        W 3649   5.671   5.060   2.273
 2653W        W 3650   0.752   5.058   0.935
 2654W        W 3651   7.356   5.329   4.073
 2655W        W 3652   5.206   5.593   5.697
 2656W        W 3653   4.412   1.606   7.945
 2657W        W 3654   0.825   0.879   2.137
 2658W        W 3655   3.461   1.513   3.831
 2659W        W 3656   7.386   1.230   2.345
 2660W        W 3657   0.189   2.819   5.303
 2661W        W 3658   2.350   6.068   4.704
 2662W        W 3659   4.935   0.979   7.392
 2663W        W 3660   1.185   6.849   3.728
 2664W        W 3661   4.809   7.666   4.916
 2665W        W 3662   1.055   2.595   4.830
 2666W        W 3663   5.537   3.055   4.506
 2667W        W 3664   3.793   7.193   5.104
 2668W        W 3665   2.762   6.512   1.723
 2669W        W 3666   1.038   2.119   2.606
 2670W        W 3667   4.810   3.757   3.169
 2671W        W 3668   1.083   5.656   5.157
 2672W        W 3669   4.510   6.921   4.274
 2673W        W 3670   2.196   0.491   2.292
 2674W        W 3671   3.878   4.063   2.239
 2675W        W 3672   4.292   3.186   5.500
 2676W        W 3673   6.480   6.745   3.036
 2677W        W 3674   6.777   7.642   3.739
 2678W        W 3675   0.762   6.766   6.653
 2679W        W 3676   7.490   3.208   7.014
 2680W        W 3677   5.611   6.297   3.644
 2681W        W 3678   1.337   5.535   6.050
 2682W        W 3679   4.681   5.141   7.481
 2683W        W 3680   4.766   5.849   5.820
 2684W        W 3681   1.903   0.933   3.265
 2685W        W 3682   6.676   2.153   7.067
 2686W        W 3683   0.618   7.271   2.359
 2687W        W 3684   6.139   4.093   3.673
 2688W        W 3685   7.397   1.834   5.380
 2689W        W 3686   0.097   1.645   2.686
 2690W        W 3687   1.755   2.388   2.059
 2691W        W 3688   7.627   5.361   6.743
 2692W        W 3689   6.924   3.067   7.126
 2693W        W 3690   7.252   4.129   4.787
 2694W        W 3691   6.126   7.167   3.521
 2695W        W 3692   3.113   4.473   1.188
 2696W        W 3693   1.579   4.825   6.908
 2697W        W 3694   0.923   3.950   6.474
 2698W        W 3695   6.915   2.815   1.792
 2699W        W 3696   2.529   0.223   1.072
 2700W        W 3697   1.892   1.084   4.711
 2701W        W 3698   4.226   4.744   6.801
 2702W        W 3699   6.264   4.465   6.034
 2703W        W 3700   6.873   1.063   0.166
 2704W        W 3701   7.156   1.072   1.734
 2705W        W 3702   5.913   3.291   4.130
 2706W        W 3703   0.900   0.799   4.854
 2707W        W 3704   4.417   7.592   1.710
 2708W        W 3705   3.628   7.147   7.756
 2709W        W 3706   0.275   5.333   4.146
 2710W        W 3707   1.994   4.544   1.703
 2711W        W 3708   6.999   5.985   7.067
 2712W        W 3709   1.845   6.662   7.885
 2713W        W 3710   6.505   4.558   6.465
 2714W        W 3711   1.938   6.318   0.345
 2715W        W 3712   3.143   5.886   6.904
 2716W        W 3713   3.971   3.809   6.387
 2717W        W 3714   7.761   5.808   5.718
 2718W        W 3715   2.470   7.346   3.011
 2719W        W 3716   2.774   0.661   1.141
 2720W        W 3717   1.544   1.318   6.401
 2721W        W 3718   5.895   2.844   5.518
 2722W        W 3719   4.647   1.710   2.690
 2723W        W 3720   6.828   7.374   1.374
 2724W        W 3721   5.015   4.413   1.647
 2725W        W 3722   2.377   7.658   3.376
 2726W        W 3723   6.726   5.555   2.871
 2727W        W 3724   4.227   7.814   2.319
 2728W        W 3725   0.531   2.883   2.695
 2729W        W 3726   3.114   0.284   1.877
 2730W        W 3727   3.112   5.929   0.543
 2731W        W 3728   6.688   4.732   0.235
 2732W        W 3729   3.198   1.667   5.606
 2733W        W 3730   1.455   7.857   0.155
 2734W        W 3731   1.257   7.387   3.048
 2735W        W 3732   0.682   6.778   0.893
 2736W        W 3733   4.266   1.732   7.505
 2737W        W 3734   0.761   6.207   5.806
 2738W        W 3735   3.093   5.717   6.377
 2739W        W 3736   1.941   2.051   5.285
 2740W        W 3737   2.812   0.644   6.459
 2741W        W 3738   3.022   2.365   1.678
 2742W        W 3739   1.236   2.223   0.976
 2743W        W 3740   0.268   6.081   1.350
 2744W        W 3741   4.780   2.316   4.770
 2745W        W 3742   3.384   0.432   5.697
 2746W        W 3743   0.300   2.243   2.072
 2747W        W 3744   7.054   2.484   6.316
 2748W        W 3745   5.241   7.376   6.419
 2749W        W 3746   7.304   7.566   5.508
 2750W        W 3747   5.210   6.529   3.447
 2751W        W 3748   3.177   7.439   0.985
 2752W        W 3749   4.221   4.088   4.778
 2753W        W 3750   5.496   6.863   5.721
 2754W        W 3751   1.265   6.610   6.551
 2755W        W 3752   7.995   4.407   0.012
 2756W        W 3753   1.432   6.112   2.098
 2757W        W 3754   4.557   6.856   5.957
 2758W        W 3755   7.828   4.101   1.053
 2759W        W 3756   5.467   4.236   1.979
 2760W        W 3757   3.857   5.043   7.024
 2761W        W 3758   2.349   3.674   6.796
 2762W        W 3759   7.588   6.424   3.991
 2763W        W 3760   1.563   2.120   1.699
 2764W        W 3761   1.312   3.725   6.570
 2765W        W 3762   3.829   3.872   5.880
 2766W        W 3763   3.929   1.036   1.031
 2767W        W 3764   0.733   4.972   4.744
 2768W        W 3765   6.109   1.360   2.777
 2769W        W 3766   5.725   5.373   5.069
 2770W        W 3767   4.303   6.481   6.838
 2771W        W 3768   4.388   3.358   3.107
 2772W        W 3769   2.069   5.553   3.951
 2773W        W 3770   1.171   3.364   5.533
 2774W        W 3771   7.431   1.347   7.389
 2775W        W 3772   3.438   0.478   6.425
 2776W        W 3773   5.130   1.191   1.112
 2777W        W 3774   6.228   2.505   5.386
 2778W        W 3775   5.211   7.900   6.282
 2779W        W 3776   2.451   1.045   0.253
 2780W        W 3777   5.116   0.269   2.912
 2781W        W 3778   0.544   5.485   5.421
 2782W        W 3779   4.037   6.694   4.344
 2783W        W 3780   3.452   6.677   6.000
 2784W        W 3781   5.389   0.482   1.891
 2785W        W 3782   5.394   3.290   6.177
 2786W        W 3783   7.941   6.055   5.316
 2787W        W 3784   2.360   6.946   4.741
 2788W        W 3785   2.878   4.314   0.739
 2789W        W 3786   6.525   1.137   3.432
 2790W        W 3787   4.791   4.159   7.194
 2791W        W 3788   5.113   3.858   7.496
 2792W        W 3789   3.123   7.930   0.926
 2793W        W 3790   5.332   0.055   0.376
 2794W        W 3791   7.689   6.814   0.833
 2795W        W 3792   6.705   0.463   6.850
 2796W        W 3793   0.723   0.353   7.704
 2797W        W 3794   2.138   5.733   4.407
 2798W        W 3795   6.503   0.341   6.225
 2799W        W 3796   6.703   6.035   2.894
 2800W        W 3797   5.022   0.460   7.970
 2801W        W 3798   3.435   4.136   1.398
 2802W        W 3799   3.846   3.499   2.137
 2803W        W 3800   5.190   1.025   7.842
 2804W        W 3801   1.686   3.701   0.635
 2805W        W 3802   5.675   0.338   0.975
 2806W        W 3803   5.453   2.644   4.223
 2807W        W 3804   4.641   0.832   4.653
 2808W        W 3805   5.799   1.516   6.729
 2809W        W 3806   2.385   2.815   7.083
 2810W        W 3807   1.796   7.496   0.951
 2811W        W 3808   7.297   4.839   4.492
 2812W        W 3809   5.885   2.144   1.156
 2813W        W 3810   7.584   6.276   1.574
 2814W        W 3811   6.126   0.209   3.525
 2815W        W 3812   5.687   3.382   2.159
 2816W        W 3813   5.477   1.529   4.653
 2817W        W 3814   4.801   5.121   1.656
 2818W        W 3815   4.336   7.618   4.809
 2819W        W 3816   3.910   0.086   4.446
 2820W        W 3817   6.373   4.905   7.174
 2821W        W 3818   1.493   0.848   2.986
 2822W        W 3819   2.774   5.314   6.002
 2823W        W 3820   7.739   7.456   0.833
 2824W        W 3821   0.761   0.940   5.366
 2825W        W 3822   0.982   3.436   3.674
 2826W        W 3823   3.916   3.835   3.337
 2827W        W 3824   6.796   2.900   6.122
 2828W        W 3825   7.473   1.552   3.920
 2829W        W 3826   0.220   1.001   5.359
 2830W        W 3827   0.941   3.356   0.176
 2831W        W 3828   4.850   1.182   3.539
 2832W        W 3829   3.463   1.956   2.433
 2833W        W 3830   1.844   4.701   2.684
 2834W        W 3831   4.637   7.129   1.814
 2835W        W 3832   4.674   3.536   2.702
 2836W        W 3833   0.630   6.261   1.041
 2837W        W 3834   5.158   3.024   3.637
 2838W        W 3835   7.152   6.783   3.943
 2839W        W 3836   3.817   5.864   3.572
 2840W        W 3837   2.636   7.239   3.517
 2841W        W 3838   5.943   0.509   3.955
 2842W        W 3839   7.444   6.524   6.521
 2843W        W 3840   2.121   2.068   2.654
 2844W        W 3841   2.512   7.486   5.134
 2845W        W 3842   0.387   2.810   1.919
 2846W        W 3843   7.310   4.114   7.364
 2847W        W 3844   5.206   1.422   7.569
 2848W        W 3845   6.324   0.187   4.276
 2849W        W 3846   1.866   7.262   3.833
 2850W        W 3847   7.849   5.118   0.833
 2851W        W 3848   2.445   7.618   5.628
 2852W        W 3849   4.318   3.264   4.015
 2853W        W 3850   6.852   3.196   4.480
 2854W        W 3851   6.506   5.397   6.891
 2855W        W 3852   7.929   3.969   3.127
 2856W        W 3853   6.516   0.948   7.197
 2857W        W 3854   2.589   0.126   4.024
 2858W        W 3855   2.995   7.608   3.578
 2859W        W 3856   0.609   2.654   3.781
 2860W        W 3857   3.265   4.502   4.341
 2861W        W 3858   5.207   5.080   7.280
 2862W        W 3859   3.690   2.010   3.009
 2863W        W 3860   5.853   0.378   1.704
 2864W        W 3861   4.266   5.567   3.487
 2865W        W 3862   2.282   7.631   6.474
 2866W        W 3863   6.912   6.537   1.504
 2867W        W 3864   4.083   6.909   0.739
 2868W        W 3865   6.551   6.337   3.385
 2869W        W 3866   4.449   3.025   0.132
 2870W        W 3867   6.007   2.740   4.951
 2871W        W 3868   4.297   1.238   7.592
 2872W        W 3869   5.536   1.543   0.854
 2873W        W 3870   7.716   4.618   6.419
 2874W        W 3871   0.216   2.031   1.173
 2875W        W 3872   1.534   6.012   6.275
 2876W        W 3873   0.617   3.578   1.046
 2877W        W 3874   5.772   2.082   7.512
 2878W        W 3875   7.672   3.288   5.198
 2879W        W 3876   3.922   3.847   5.160
 2880W        W 3877   6.164   0.806   7.529
 2881W        W 3878   6.859   6.702   3.503
 2882W        W 3879   4.176   1.545   6.597
 2883W        W 3880   3.814   1.110   4.758
 2884W        W 3881   7.463   6.667   4.408
 2885W        W 3882   2.099   4.948   1.359
 2886W        W 3883   1.979   2.925   5.196
 2887W        W 3884   5.512   3.226   5.652
 2888W        W 3885   3.567   2.859   4.372
 2889W        W 3886   3.885   4.587   3.527
 2890W        W 3887   1.239   6.828   0.948
 2891W        W 3888   5.523   0.151   3.237
 2892W        W 3889   3.007   3.151   4.463
 2893W        W 3890   2.301   0.606   3.159
 2894W        W 3891   2.064   7.514   6.003
 2895W        W 3892   5.200   2.707   0.208
 2896W        W 3893   0.317   2.426   7.364
 2897W        W 3894   0.113   2.912   1.570
 2898W        W 3895   6.683   3.322   2.064
 2899W        W 3896   4.895   6.566   0.445
 2900W        W 3897   4.180   1.537   4.027
 2901W        W 3898   0.468   0.338   3.131
 2902W        W 3899   2.335   1.946   4.406
 2903W        W 3900   3.106   0.945   3.996
 2904W        W 3901   6.253   7.750   4.413
 2905W        W 3902   6.458   6.458   7.333
 2906W        W 3903   5.521   0.287   5.946
 2907W        W 3904   1.186   5.948   7.210
 2908W        W 3905   4.661   3.696   6.931
 2909W        W 3906   3.393   6.711   5.111
 2910W        W 3907   1.514   2.009   6.748
 2911W        W 3908   5.649   6.180   1.642
 2912W        W 3909   5.439   6.812   5.209
 2913W        W 3910   0.477   4.680   7.818
 2914W        W 3911   4.463   2.393   4.383
 2915W        W 3912   6.942   4.132   2.518
 2916W        W 3913   6.941   1.260   5.189
 2917W        W 3914   0.193   4.663   2.090
 2918W        W 3915   6.306   3.879   4.150
 2919W        W 3916   4.621   4.786   3.974
 2920W        W 3917   5.298   5.955   6.066
 2921W        W 3918   1.740   0.626   7.870
 2922W        W 3919   6.875   7.217   4.084
 2923W        W 3920   2.720   4.298   5.305
 2924W        W 3921   3.233   1.042   4.825
 2925W        W 3922   0.961   5.005   7.124
 2926W        W 3923   7.381   6.703   1.307
 2927W        W 3924   6.790   0.918   3.051
 2928W        W 3925   7.971   4.394   3.352
 2929W        W 3926   7.875   5.553   3.502
 2930W        W 3927   7.847   5.814   1.770
 2931W        W 3928   4.836   0.853   6.407
 2932W        W 3929   1.339   0.179   6.485
 2933W        W 3930   3.147   5.745   5.887
 2934W        W 3931   1.844   2.214   4.828
 2935W        W 3932   3.966   4.713   7.561
 2936W        W 3933   3.231   0.502   3.725
 2937W        W 3934   3.846   1.435   2.737
 2938W        W 3935   1.681   2.878   2.678
 2939W        W 3936   3.556   5.427   6.785
 2940W        W 3937   7.958   3.791   7.836
 2941W        W 3938   3.629   0.469   7.455
 2942W        W 3939   1.492   4.113   0.441
 2943W        W 3940   4.536   6.672   1.547
 2944W        W 3941   5.346   3.719   1.866
 2945W        W 3942   6.950   4.984   4.108
 2946W        W 3943   7.187   1.433   0.056
 2947W        W 3944   2.957   1.383   7.034
 2948W        W 3945   7.131   6.392   4.615
 2949W        W 3946   6.548   6.166   1.709
 2950W        W 3947   0.735   3.389   2.605
 2951W        W 3948   6.677   0.579   0.207
 2952W        W 3949   7.471   6.588   2.948
 2953W        W 3950   6.740   5.774   6.680
 2954W        W 3951   0.741   7.139   2.825
 2955W        W 3952   6.027   5.222   5.402
 2956W        W 3953   0.199   4.902   2.766
 2957W        W 3954   0.103   1.926   5.540
 2958W        W 3955   3.458   1.292   6.421
 2959W        W 3956   4.924   7.144   5.798
 2960W        W 3957   1.753   3.227   0.841
 2961W        W 3958   0.011   0.347   6.489
 2962W        W 3959   0.038   1.318   7.673
 2963W        W 3960   1.552   3.619   4.057
 2964W        W 3961   3.051   6.778   6.892
 2965W        W 3962   1.999   6.453   4.619
 2966W        W 3963   4.345   6.035   1.101
 2967W        W 3964   5.342   1.582   2.248
 2968W        W 3965   7.672   7.282   0.382
 2969W        W 3966   1.700   0.416   3.184
 2970W        W 3967   2.213   7.194   0.983
 2971W        W 3968   6.255   0.468   0.821
 2972W        W 3969   6.146   2.516   3.667
 2973W        W 3970   5.005   1.973   5.732
 2974W        W 3971   3.708   5.585   0.030
 2975W        W 3972   5.793   5.722   6.116
 2976W        W 3973   4.357   3.115   6.390
 2977W        W 3974   1.294   7.133   2.618
 2978W        W 3975   7.555   5.064   6.251
 2979W        W 3976   5.725   3.392   1.641
 2980W        W 3977   6.843   6.020   6.234
 2981W        W 3978   3.298   2.570   5.788
 2982W        W 3979   4.943   2.315   2.041
 2983W        W 3980   7.351   1.161   3.073
 2984W        W 3981   4.334   2.648   4.820
 2985W        W 3982   3.062   3.244   3.540
 2986W        W 3983   0.854   0.066   3.326
 2987W        W 3984   0.511   5.687   3.208
 2988W        W 3985   4.532   1.628   5.858
 2989W        W 3986   7.395   1.030   4.715
 2990W        W 3987   7.669   7.724   6.275
 2991W        W 3988   0.802   6.497   3.760
 2992W        W 3989   6.560   6.379   6.363
 2993W        W 3990   3.797   1.379   0.326
 2994W        W 3991   6.368   0.883   3.857
 2995W        W 3992   6.456   0.607   3.388
 2996W        W 3993   7.161   5.829   5.822
 2997W        W 3994   3.023   0.525   4.222
 2998W        W 3995   0.586   1.288   5.096
 2999W        W 3996   3.579   7.078   5.626
 3000W        W 3997   0.269   3.535   4.534
 3001W        W 3998   7.734   4.078   4.226
 3002W        W 3999   2.917   0.717   1.827
 3003W        W 4000   1.687   7.264   1.384
 3004W        W 4001   6.117   7.001   4.924
 3005W        W 4002   4.820   1.380   1.488
 3006W        W 4003   5.654   5.918   6.928
 3007W        W 4004   5.061   1.881   6.200
 3008W        W 4005   6.287   3.901   7.209
 3009W        W 4006   5.218   7.600   6.861
 3010W        W 4007   6.414   6.968   6.282
 3011W        W 4008   6.056   3.713   0.443
 3012W        W 4009   2.456   2.126   3.058
 3013W        W 4010   4.299   4.938   0.303
 3014W        W 4011   4.535   3.129   1.100
 3015W        W 4012   6.696   7.099   4.926
 3016W        W 4013   4.623   3.627   1.139
 3017W        W 4014   4.431   3.785   3.552
 3018W        W 4015   5.945   4.666   5.380
 3019W        W 4016   3.115   7.387   7.729
 3020W        W 4017   1.918   2.978   6.992
 3021W        W 4018   7.614   2.536   4.288
 3022W        W 4019   2.879   2.641   1.273
 3023W        W 4020   5.584   6.238   2.162
 3024W        W 4021   3.604   3.791   1.787
 3025W        W 4022   5.474   0.937   0.396
 3026W        W 4023   4.135   7.007   5.707
 3027W        W 4024   2.626   5.089   2.396
 3028W        W 4025   4.911   2.512   5.450
 3029W        W 4026   5.991   7.197   0.743
 3030W        W 4027   2.566   3.027   0.228
 3031W        W 4028   1.709   2.541   5.395
 3032W        W 4029   6.757   7.780   4.432
 3033W        W 4030   1.482   4.089   7.696
 3034W        W 4031   7.366   2.889   4.010
 3035W        W 4032   0.157   5.371   4.594
 3036W        W 4033   0.620   4.815   3.816
 3037W        W 4034   7.425   1.828   6.828
 3038W        W 4035   5.314   5.322   3.530
 3039W        W 4036   3.620   1.601   1.189
 3040W        W 4037   3.005   1.747   0.189
 3041W        W 4038   6.544   4.202   4.525
 3042W        W 4039   4.818   4.703   6.672
 3043W        W 4040   6.049   3.731   6.692
 3044W        W 4041   7.040   2.248   7.471
 3045W        W 4042   5.157   2.816   2.233
 3046W        W 4043   1.168   2.728   7.465
 3047W        W 4044   2.291   0.105   0.592
 3048W        W 4045   5.591   5.385   7.412
 3049W        W 4046   0.816   2.248   7.328
 3050W        W 4047   5.689   2.749   3.395
 3051W        W 4048   4.826   7.426   5.397
 3052W        W 4049   3.940   7.340   2.486
 3053W        W 4050   1.952   6.073   6.014
 3054W        W 4051   3.271   4.436   5.319
 3055W        W 4052   5.992   7.705   1.618
 3056W        W 4053   4.662   3.089   7.772
 3057W        W 4054   6.305   3.372   2.875
 3058W        W 4055   4.055   2.844   4.184
 3059W        W 4056   3.670   7.549   7.346
 3060W        W 4057   3.107   4.155   6.390
 3061W        W 4058   7.077   2.092   3.833
 3062W        W 4059   4.392   3.644   4.943
 3063W        W 4060   7.484   5.038   0.358
 3064W        W 4061   6.581   4.574   5.619
 3065W        W 4062   0.141   1.204   3.687
 3066W        W 4063   2.468   4.585   7.133
 3067W        W 4064   6.267   2.332   7.882
 3068W        W 4065   5.195   6.807   6.129
 3069W        W 4066   1.967   3.374   7.300
 3070W        W 4067   2.384   6.654   7.205
 3071W        W 4068   2.490   3.171   5.611
 3072W        W 4069   6.546   1.892   0.675
 3073W        W 4070   1.656   6.815   3.614
 3074W        W 4071   3.941   3.366   5.051
 3075W        W 4072   6.840   0.130   1.750
 3076W        W 4073   7.356   0.399   6.885
 3077W        W 4074   3.847   1.849   3.887
 3078W        W 4075   4.835   6.747   6.495
 3079W        W 4076   1.709   4.198   2.667
 3080W        W 4077   2.627   0.199   2.204
 3081W        W 4078   7.965   4.383   6.936
 3082W        W 4079   5.238   3.845   6.036
 3083W        W 4080   0.529   2.351   0.221
 3084W        W 4081   3.222   3.049   1.437
 3085W        W 4082   1.870   4.466   4.112
 3086W        W 4083   0.538   6.621   2.092
 3087W        W 4084   2.206   2.504   5.098
 3088W        W 4085   0.199   2.664   2.385
 3089W        W 4086   2.388   2.894   3.322
 3090W        W 4087   4.762   3.283   6.702
 3091W        W 4088   0.011   6.640   2.133
 3092W        W 4089   0.424   4.086   2.870
 3093W        W 4090   7.746   4.835   3.349
 3094W        W 4091   2.374   0.800   3.608
 3095W        W 4092   0.866   5.105   7.626
 3096W        W 4093   7.648   3.556   7.534
 3097W        W 4094   4.329   6.924   2.543
 3098W        W 4095   6.581   2.494   1.553
 3099W        W 4096   0.096   2.253   4.014
 3100W        W 4097   0.201   6.891   4.609
 3101W        W 4098   2.260   6.919   2.093
 3102W        W 4099   4.495   2.886   6.830
 3103W        W 4100   7.342   1.875   1.439
 3104W        W 4101   6.106   5.019   0.801
 3105W        W 4102   0.754   7.033   5.499
 3106W        W 4103   7.116   3.414   2.333
 3107W        W 4104   1.705   6.551   6.245
 3108W        W 4105   3.506   3.556   3.897
 3109W        W 4106   4.222   5.349   7.994
 3110W        W 4107   3.798   1.987   2.012
 3111W        W 4108   2.493   0.891   5.441
 3112W        W 4109   1.903   4.814   6.494
 3113W        W 4110   1.995   1.598   5.111
 3114W        W 4111   5.116   1.352   2.599
 3115W        W 4112   7.211   6.690   6.082
 3116W        W 4113   7.024   6.258   6.679
 3117W        W 4114   5.457   1.338   7.069
 3118W        W 4115   6.236   3.846   4.679
 3119W        W 4116   0.298   7.556   0.935
 3120W        W 4117   4.997   7.370   2.187
 3121W        W 4118   3.320   5.956   4.833
 3122W        W 4119   5.305   1.714   6.755
 3123W        W 4120   5.463   5.398   0.493
 3124W        W 4121   6.219   6.928   7.135
 3125W        W 4122   6.839   7.016   2.689
 3126W        W 4123   7.820   0.238   1.153
 3127W        W 4124   0.391   1.970   7.560
 3128W        W 4125   0.265   3.825   1.387
 3129W        W 4126   7.118   1.325   4.286
 3130W        W 4127   6.967   3.881   2.949
 3131W        W 4128   7.328   3.863   2.312
 3132W        W 4129   3.482   7.576   5.630
 3133W        W 4130   4.550   0.363   7.039
 3134W        W 4131   0.932   1.406   5.423
 3135W        W 4132   6.836   0.740   3.996
 3136W        W 4133   3.410   7.503   3.382
 3137W        W 4134   2.245   3.002   6.036
 3138W        W 4135   1.736   3.761   4.586
 3139W        W 4136   7.561   1.375   5.985
 3140W        W 4137   0.253   3.344   5.539
 3141W        W 4138   1.146   1.681   6.469
 3142W        W 4139   1.109   6.546   2.791
 3143W        W 4140   2.838   6.456   7.571
 3144W        W 4141   7.641   0.391   2.676
 3145W        W 4142   0.761   4.388   6.603
 3146W        W 4143   2.032   4.469   1.172
 3147W        W 4144   5.249   6.548   4.832
 3148W        W 4145   0.823   2.017   2.145
 3149W        W 4146   6.092   0.274   1.284
 3150W        W 4147   2.240   0.195   2.898
 3151W        W 4148   6.921   1.503   6.044
 3152W        W 4149   2.090   6.952   1.632
 3153W        W 4150   0.868   6.791   2.487
 3154W        W 4151   3.458   7.616   0.611
 3155W        W 4152   6.345   4.669   4.617
 3156W        W 4153   3.035   5.330   1.266
 3157W        W 4154   5.119   0.728   4.881
 3158W        W 4155   3.309   3.119   2.635
 3159W        W 4156   7.962   3.768   6.359
 3160W        W 4157   0.510   7.646   1.389
 3161W        W 4158   5.491   2.630   6.781
 3162W        W 4159   0.082   3.144   2.636
 3163W        W 4160   6.792   4.912   4.668
 3164W        W 4161   6.795   1.871   3.414
 3165W        W 4162   5.071   3.741   6.542
 3166W        W 4163   2.142   2.488   6.770
 3167W        W 4164   1.977   7.542   3.071
 3168W        W 4165   7.326   6.667   3.432
 3169W        W 4166   4.433   2.152   2.679
 3170W        W 4167   7.477   0.812   1.332
 3171W        W 4168   1.671   5.985   4.610
 3172W        W 4169   3.612   2.999   2.269
 3173W        W 4170   1.716   3.265   0.226
 3174W        W 4171   6.862   1.258   6.570
 3175W        W 4172   3.182   2.071   6.049
 3176W        W 4173   1.807   0.803   4.299
 3177W        W 4174   5.569   3.620   3.944
 3178W        W 4175   4.315   4.419   0.137
 3179W        W 4176   7.057   2.002   0.095
 3180W        W 4177   3.079   5.876   1.077
 3181W        W 4178   6.110   6.320   6.552
 3182W        W 4179   3.480   3.995   5.478
 3183W        W 4180   0.999   3.896   0.369
 3184W        W 4181   1.253   6.368   6.075
 3185W        W 4182   4.509   2.980   2.716
 3186W        W 4183   5.076   2.845   2.800
 3187W        W 4184   4.312   5.065   4.226
 3188W        W 4185   2.838   2.910   7.734
 3189W        W 4186   4.730   5.030   2.123
 3190W        W 4187   5.302   4.533   3.096
 3191W        W 4188   5.460   7.517   2.475
 3192W        W 4189   5.535   5.510   2.482
 3193W        W 4190   4.717   5.174   3.466
 3194W        W 4191   7.332   1.354   6.404
 3195W        W 4192   3.270   3.087   4.014
 3196W        W 4193   5.425   1.206   4.254
 3197W        W 4194   7.820   1.633   1.681
 3198W        W 4195   3.135   4.905   0.947
 3199W        W 4196   1.015   7.828   1.460
 3200W        W 4197   1.355   5.842   7.738
 3201W        W 4198   5.179   2.493   0.708
 3202W        W 4199   6.118   1.947   1.675
 3203W        W 4200   5.865   0.965   1.984
   8.00000   8.00000   8.00000
