Martini system from ../2_Creating_coordinates/TYR-SER-TYR_aa.pdb
 4247
    1TYR     BB    1   5.907   4.571   4.156
    1TYR    SC1    2   5.621   4.677   4.095
    1TYR    SC2    3   5.522   4.464   4.043
    1TYR    SC3    4   5.316   4.530   4.153
    2SER     BB    5   5.725   4.301   4.346
    2SER    SC1    6   5.956   4.184   4.396
    3TYR     BB    7   5.594   4.015   4.280
    3TYR    SC1    8   5.310   4.080   4.283
    3TYR    SC2    9   5.188   3.878   4.234
    3TYR    SC3   10   5.020   3.936   4.400
    1TYR     BB   11   4.277   3.664   0.504
    1TYR    SC1   12   4.116   3.916   0.417
    1TYR    SC2   13   3.995   3.945   0.622
    1TYR    SC3   14   4.015   4.186   0.604
    2SER     BB   15   4.326   3.853   0.826
    2SER    SC1   16   4.450   3.644   0.927
    3TYR     BB   17   4.165   3.891   1.103
    3TYR    SC1   18   4.057   4.159   1.070
    3TYR    SC2   19   3.930   4.212   1.268
    3TYR    SC3   20   4.014   4.439   1.266
    1TYR     BB   21   3.176   7.706   0.489
    1TYR    SC1   22   2.905   7.815   0.596
    1TYR    SC2   23   2.816   7.604   0.669
    1TYR    SC3   24   2.717   7.710   0.864
    2SER     BB   25   3.177   7.504   0.808
    2SER    SC1   26   3.399   7.386   0.728
    3TYR     BB   27   3.061   7.221   0.907
    3TYR    SC1   28   2.835   7.306   1.070
    3TYR    SC2   29   2.730   7.107   1.157
    3TYR    SC3   30   2.696   7.216   1.372
    1TYR     BB   31   5.677   5.053   0.746
    1TYR    SC1   32   5.642   4.811   0.938
    1TYR    SC2   33   5.737   4.915   1.133
    1TYR    SC3   34   5.572   4.807   1.275
    2SER     BB   35   5.548   5.254   1.037
    2SER    SC1   36   5.586   5.475   0.898
    3TYR     BB   37   5.673   5.397   1.297
    3TYR    SC1   38   5.592   5.213   1.508
    3TYR    SC2   39   5.676   5.300   1.716
    3TYR    SC3   40   5.470   5.236   1.829
    1TYR     BB   41   0.558   2.231   3.164
    1TYR    SC1   42   0.821   2.159   3.314
    1TYR    SC2   43   0.778   2.289   3.512
    1TYR    SC3   44   0.876   2.116   3.651
    2SER     BB   45   0.395   2.173   3.499
    2SER    SC1   46   0.164   2.247   3.397
    3TYR     BB   47   0.334   2.346   3.764
    3TYR    SC1   48   0.536   2.243   3.947
    3TYR    SC2   49   0.510   2.360   4.156
    3TYR    SC3   50   0.551   2.155   4.280
    1TYR     BB   51   0.531   0.733   4.535
    1TYR    SC1   52   0.353   0.679   4.784
    1TYR    SC2   53   0.423   0.451   4.820
    1TYR    SC3   54   0.417   0.484   5.060
    2SER     BB   55   0.798   0.557   4.734
    2SER    SC1   56   0.961   0.577   4.528
    3TYR     BB   57   0.894   0.253   4.781
    3TYR    SC1   58   0.790   0.201   5.048
    3TYR    SC2   59   0.850  -0.025   5.107
    3TYR    SC3   60   0.900   0.044   5.334
    1TYR     BB   61   6.689   7.641   1.944
    1TYR    SC1   62   6.523   7.485   1.732
    1TYR    SC2   63   6.605   7.265   1.786
    1TYR    SC3   64   6.385   7.170   1.749
    2SER     BB   65   6.587   7.360   2.174
    2SER    SC1   66   6.736   7.466   2.364
    3TYR     BB   67   6.698   7.067   2.250
    3TYR    SC1   68   6.509   6.896   2.109
    3TYR    SC2   69   6.572   6.668   2.151
    3TYR    SC3   70   6.339   6.604   2.173
    1TYR     BB   71   4.106   3.312   6.078
    1TYR    SC1   72   4.379   3.454   6.030
    1TYR    SC2   73   4.322   3.556   5.820
    1TYR    SC3   74   4.446   3.756   5.880
    2SER     BB   75   3.959   3.641   5.965
    2SER    SC1   76   3.718   3.536   5.982
    3TYR     BB   77   3.880   3.779   5.685
    3TYR    SC1   78   4.097   3.970   5.652
    3TYR    SC2   79   4.059   4.088   5.445
    3TYR    SC3   80   4.130   4.296   5.547
    1TYR     BB   81   1.827   0.336   2.668
    1TYR    SC1   82   1.703   0.617   2.620
    1TYR    SC2   83   1.771   0.714   2.830
    1TYR    SC3   84   1.817   0.927   2.721
    2SER     BB   85   2.124   0.530   2.796
    2SER    SC1   86   2.241   0.303   2.860
    3TYR     BB   87   2.218   0.658   3.076
    3TYR    SC1   88   2.170   0.941   3.028
    3TYR    SC2   89   2.233   1.061   3.228
    3TYR    SC3   90   2.332   1.238   3.094
    1TYR     BB   91   6.797   5.734   1.073
    1TYR    SC1   92   7.089   5.703   1.174
    1TYR    SC2   93   7.154   5.933   1.146
    1TYR    SC3   94   7.284   5.925   1.351
    2SER     BB   95   6.796   6.045   1.285
    2SER    SC1   96   6.554   6.100   1.198
    3TYR     BB   97   6.880   6.355   1.248
    3TYR    SC1   98   7.129   6.364   1.398
    3TYR    SC2   99   7.213   6.590   1.385
    3TYR    SC3  100   7.282   6.581   1.618
    1TYR     BB  101   3.079   1.271   6.453
    1TYR    SC1  102   3.302   1.468   6.543
    1TYR    SC2  103   3.445   1.304   6.646
    1TYR    SC3  104   3.642   1.419   6.563
    2SER     BB  105   3.367   1.054   6.344
    2SER    SC1  106   3.195   0.866   6.276
    3TYR     BB  107   3.558   0.832   6.478
    3TYR    SC1  108   3.805   0.983   6.513
    3TYR    SC2  109   3.966   0.835   6.614
    3TYR    SC3  110   4.142   0.925   6.472
    1TYR     BB  111   1.416   7.053   4.855
    1TYR    SC1  112   1.521   6.761   4.833
    1TYR    SC2  113   1.398   6.701   4.635
    1TYR    SC3  114   1.587   6.572   4.553
    2SER     BB  115   1.476   7.062   4.483
    2SER    SC1  116   1.375   7.305   4.475
    3TYR     BB  117   1.312   6.985   4.216
    3TYR    SC1  118   1.444   6.737   4.139
    3TYR    SC2  119   1.337   6.658   3.938
    3TYR    SC3  120   1.551   6.591   3.846
    1TYR     BB  121   6.469   4.969   1.388
    1TYR    SC1  122   6.254   4.794   1.529
    1TYR    SC2  123   6.407   4.648   1.644
    1TYR    SC3  124   6.262   4.645   1.839
    2SER     BB  125   6.640   4.963   1.724
    2SER    SC1  126   6.842   5.097   1.620
    3TYR     BB  127   6.847   4.771   1.879
    3TYR    SC1  128   6.670   4.639   2.070
    3TYR    SC2  129   6.804   4.487   2.199
    3TYR    SC3  130   6.682   4.547   2.401
    1TYR     BB  131   5.872   7.407  -0.000
    1TYR    SC1  132   5.587   7.287  -0.034
    1TYR    SC2  133   5.476   7.431   0.123
    1TYR    SC3  134   5.280   7.442  -0.020
    2SER     BB  135   5.692   7.738  -0.014
    2SER    SC1  136   5.921   7.861   0.031
    3TYR     BB  137   5.545   7.935   0.195
    3TYR    SC1  138   5.265   7.884   0.133
    3TYR    SC2  139   5.132   8.022   0.279
    3TYR    SC3  140   4.978   8.072   0.098
    1TYR     BB  141   7.206   4.046   4.289
    1TYR    SC1  142   7.439   4.031   4.495
    1TYR    SC2  143   7.479   4.268   4.512
    1TYR    SC3  144   7.521   4.247   4.750
    2SER     BB  145   7.084   4.330   4.506
    2SER    SC1  146   6.888   4.372   4.334
    3TYR     BB  147   7.134   4.647   4.527
    3TYR    SC1  148   7.304   4.662   4.764
    3TYR    SC2  149   7.356   4.894   4.801
    3TYR    SC3  150   7.331   4.865   5.041
    1TYR     BB  151   7.263   0.448   3.531
    1TYR    SC1  152   7.390   0.674   3.358
    1TYR    SC2  153   7.412   0.547   3.155
    1TYR    SC3  154   7.353   0.742   3.023
    2SER     BB  155   7.052   0.386   3.224
    2SER    SC1  156   6.943   0.179   3.345
    3TYR     BB  157   7.078   0.214   2.953
    3TYR    SC1  158   7.134   0.423   2.758
    3TYR    SC2  159   7.158   0.317   2.543
    3TYR    SC3  160   7.038   0.499   2.437
    1TYR     BB  161  -0.139   0.194   6.414
    1TYR    SC1  162   0.164   0.258   6.444
    1TYR    SC2  163   0.170   0.261   6.684
    1TYR    SC3  164   0.388   0.154   6.684
    2SER     BB  165  -0.073  -0.057   6.689
    2SER    SC1  166  -0.330  -0.115   6.693
    3TYR     BB  167  -0.068  -0.056   7.011
    3TYR    SC1  168   0.219  -0.062   7.063
    3TYR    SC2  169   0.249  -0.061   7.302
    3TYR    SC3  170   0.431  -0.222   7.282
    1TYR     BB  171   3.124   8.078   3.321
    1TYR    SC1  172   3.284   8.245   3.529
    1TYR    SC2  173   3.188   8.146   3.726
    1TYR    SC3  174   3.403   8.155   3.838
    2SER     BB  175   3.206   7.788   3.549
    2SER    SC1  176   3.060   7.631   3.396
    3TYR     BB  177   3.078   7.653   3.811
    3TYR    SC1  178   3.259   7.747   4.019
    3TYR    SC2  179   3.183   7.657   4.229
    3TYR    SC3  180   3.412   7.615   4.298
    1TYR     BB  181   3.645   2.008   3.383
    1TYR    SC1  182   3.870   1.808   3.302
    1TYR    SC2  183   3.743   1.685   3.140
    1TYR    SC3  184   3.938   1.666   2.997
    2SER     BB  185   3.583   2.028   3.012
    2SER    SC1  186   3.376   2.185   3.058
    3TYR     BB  187   3.410   1.865   2.793
    3TYR    SC1  188   3.619   1.715   2.656
    3TYR    SC2  189   3.513   1.582   2.485
    3TYR    SC3  190   3.695   1.629   2.332
    1TYR     BB  191   7.846   7.361   4.637
    1TYR    SC1  192   7.947   7.316   4.346
    1TYR    SC2  193   7.972   7.077   4.360
    1TYR    SC3  194   7.891   7.052   4.132
    2SER     BB  195   7.630   7.059   4.567
    2SER    SC1  196   7.544   7.068   4.816
    3TYR     BB  197   7.661   6.739   4.588
    3TYR    SC1  198   7.692   6.666   4.308
    3TYR    SC2  199   7.717   6.427   4.297
    3TYR    SC3  200   7.577   6.418   4.099
    1TYR     BB  201   8.086   5.613   2.345
    1TYR    SC1  202   7.922   5.877   2.335
    1TYR    SC2  203   7.974   5.934   2.107
    1TYR    SC3  204   7.748   6.017   2.073
    2SER     BB  205   7.933   5.550   2.006
    2SER    SC1  206   8.076   5.329   1.986
    3TYR     BB  207   8.002   5.623   1.700
    3TYR    SC1  208   7.808   5.833   1.646
    3TYR    SC2  209   7.840   5.906   1.419
    3TYR    SC3  210   7.600   5.922   1.387
    1TYR     BB  211   7.968   3.014   6.187
    1TYR    SC1  212   7.982   3.026   5.876
    1TYR    SC2  213   7.801   3.181   5.845
    1TYR    SC3  214   7.921   3.290   5.664
    2SER     BB  215   7.930   3.389   6.162
    2SER    SC1  216   7.899   3.400   6.423
    3TYR     BB  217   7.689   3.598   6.123
    3TYR    SC1  218   7.725   3.675   5.844
    3TYR    SC2  219   7.552   3.835   5.790
    3TYR    SC3  220   7.710   3.966   5.661
    1TYR     BB  221   3.983   6.980   4.059
    1TYR    SC1  222   4.261   7.046   3.936
    1TYR    SC2  223   4.223   6.941   3.722
    1TYR    SC3  224   4.345   7.119   3.610
    2SER     BB  225   3.851   7.086   3.722
    2SER    SC1  226   3.608   7.021   3.800
    3TYR     BB  227   3.797   6.947   3.437
    3TYR    SC1  228   4.019   7.052   3.280
    3TYR    SC2  229   4.001   6.960   3.058
    3TYR    SC3  230   4.066   7.173   2.961
    1TYR     BB  231   6.184   2.524   0.797
    1TYR    SC1  232   6.438   2.623   0.946
    1TYR    SC2  233   6.540   2.734   0.757
    1TYR    SC3  234   6.620   2.913   0.901
    2SER     BB  235   6.181   2.871   0.650
    2SER    SC1  236   5.974   2.803   0.501
    3TYR     BB  237   6.314   3.020   0.397
    3TYR    SC1  238   6.523   3.177   0.526
    3TYR    SC2  239   6.639   3.299   0.355
    3TYR    SC3  240   6.653   3.494   0.498
    1TYR     BB  241   4.119   1.897   0.516
    1TYR    SC1  242   4.155   1.592   0.567
    1TYR    SC2  243   4.140   1.523   0.337
    1TYR    SC3  244   4.312   1.355   0.372
    2SER     BB  245   4.359   1.840   0.231
    2SER    SC1  246   4.329   2.092   0.160
    3TYR     BB  247   4.340   1.750  -0.078
    3TYR    SC1  248   4.437   1.476  -0.063
    3TYR    SC2  249   4.431   1.385  -0.286
    3TYR    SC3  250   4.643   1.272  -0.249
    1TYR     BB  251   1.359   3.172   3.192
    1TYR    SC1  252   1.615   3.277   3.335
    1TYR    SC2  253   1.596   3.139   3.532
    1TYR    SC3  254   1.837   3.109   3.537
    2SER     BB  255   1.484   2.833   3.301
    2SER    SC1  256   1.266   2.724   3.201
    3TYR     BB  257   1.458   2.646   3.562
    3TYR    SC1  258   1.721   2.679   3.682
    3TYR    SC2  259   1.726   2.546   3.883
    3TYR    SC3  260   1.954   2.477   3.835
    1TYR     BB  261   5.863   0.303   4.927
    1TYR    SC1  262   6.162   0.334   5.007
    1TYR    SC2  263   6.126   0.477   5.197
    1TYR    SC3  264   6.304   0.364   5.319
    2SER     BB  265   5.808   0.255   5.297
    2SER    SC1  266   5.549   0.243   5.254
    3TYR     BB  267   5.758   0.445   5.553
    3TYR    SC1  268   6.018   0.435   5.684
    3TYR    SC2  269   6.005   0.571   5.881
    3TYR    SC3  270   6.136   0.409   6.006
    1TYR     BB  271   1.874   0.627   0.132
    1TYR    SC1  272   2.075   0.676   0.365
    1TYR    SC2  273   1.957   0.861   0.465
    1TYR    SC3  274   2.015   0.781   0.687
    2SER     BB  275   1.612   0.671   0.400
    2SER    SC1  276   1.424   0.649   0.216
    3TYR     BB  277   1.452   0.917   0.534
    3TYR    SC1  278   1.587   0.938   0.792
    3TYR    SC2  279   1.483   1.119   0.912
    3TYR    SC3  280   1.495   0.992   1.119
    1TYR     BB  281   4.382   3.444   3.044
    1TYR    SC1  282   4.385   3.141   3.111
    1TYR    SC2  283   4.536   3.154   3.298
    1TYR    SC3  284   4.410   2.983   3.416
    2SER     BB  285   4.352   3.488   3.417
    2SER    SC1  286   4.365   3.749   3.385
    3TYR     BB  287   4.553   3.508   3.668
    3TYR    SC1  288   4.520   3.245   3.789
    3TYR    SC2  289   4.664   3.235   3.982
    3TYR    SC3  290   4.493   3.116   4.107
    1TYR     BB  291   7.316   6.106   0.448
    1TYR    SC1  292   7.187   5.832   0.521
    1TYR    SC2  293   7.338   5.694   0.395
    1TYR    SC3  294   7.335   5.526   0.570
    2SER     BB  295   7.641   5.927   0.514
    2SER    SC1  296   7.772   6.143   0.439
    3TYR     BB  297   7.846   5.744   0.346
    3TYR    SC1  298   7.786   5.479   0.451
    3TYR    SC2  299   7.930   5.322   0.339
    3TYR    SC3  300   7.964   5.200   0.546
    1TYR     BB  301   6.419   2.570   6.884
    1TYR    SC1  302   6.639   2.506   6.673
    1TYR    SC2  303   6.688   2.283   6.749
    1TYR    SC3  304   6.716   2.208   6.520
    2SER     BB  305   6.298   2.222   6.807
    2SER    SC1  306   6.114   2.247   6.994
    3TYR     BB  307   6.361   1.923   6.909
    3TYR    SC1  308   6.517   1.818   6.687
    3TYR    SC2  309   6.577   1.591   6.741
    3TYR    SC3  310   6.537   1.522   6.512
    1TYR     BB  311   5.169   0.656   4.004
    1TYR    SC1  312   5.140   0.928   4.153
    1TYR    SC2  313   5.030   0.841   4.349
    1TYR    SC3  314   5.154   0.996   4.490
    2SER     BB  315   5.275   0.526   4.341
    2SER    SC1  316   5.290   0.283   4.239
    3TYR     BB  317   5.131   0.408   4.604
    3TYR    SC1  318   5.152   0.633   4.787
    3TYR    SC2  319   5.048   0.568   4.994
    3TYR    SC3  320   5.223   0.680   5.120
    1TYR     BB  321   1.316   4.596   6.470
    1TYR    SC1  322   1.040   4.716   6.390
    1TYR    SC2  323   0.956   4.747   6.614
    1TYR    SC3  324   0.851   4.956   6.550
    2SER     BB  325   1.319   4.872   6.728
    2SER    SC1  326   1.545   4.777   6.823
    3TYR     BB  327   1.209   4.913   7.028
    3TYR    SC1  328   0.979   5.085   6.981
    3TYR    SC2  329   0.878   5.131   7.195
    3TYR    SC3  330   0.837   5.361   7.130
    1TYR     BB  331   5.105   0.929   3.200
    1TYR    SC1  332   5.271   1.152   3.340
    1TYR    SC2  333   5.423   1.194   3.158
    1TYR    SC3  334   5.420   1.432   3.205
    2SER     BB  335   5.118   1.160   2.902
    2SER    SC1  336   4.992   0.977   2.759
    3TYR     BB  337   5.319   1.215   2.656
    3TYR    SC1  338   5.443   1.465   2.738
    3TYR    SC2  339   5.600   1.528   2.567
    3TYR    SC3  340   5.535   1.761   2.588
    1TYR     BB  341   1.466   6.968   7.208
    1TYR    SC1  342   1.406   6.662   7.200
    1TYR    SC2  343   1.425   6.623   7.436
    1TYR    SC3  344   1.241   6.465   7.428
    2SER     BB  345   1.233   6.967   7.505
    2SER    SC1  346   1.283   7.223   7.541
    3TYR     BB  347   1.257   6.916   7.822
    3TYR    SC1  348   1.141   6.651   7.847
    3TYR    SC2  349   1.148   6.590   8.080
    3TYR    SC3  350   0.928   6.489   8.063
    1TYR     BB  351   2.208   4.469   5.234
    1TYR    SC1  352   2.070   4.304   5.459
    1TYR    SC2  353   2.258   4.297   5.609
    1TYR    SC3  354   2.110   4.322   5.800
    2SER     BB  355   2.337   4.679   5.519
    2SER    SC1  356   2.476   4.822   5.347
    3TYR     BB  357   2.589   4.673   5.720
    3TYR    SC1  358   2.464   4.581   5.966
    3TYR    SC2  359   2.636   4.568   6.134
    3TYR    SC3  360   2.484   4.656   6.301
    1TYR     BB  361   3.930   4.458  -0.161
    1TYR    SC1  362   3.811   4.735  -0.083
    1TYR    SC2  363   3.586   4.658  -0.042
    1TYR    SC3  364   3.566   4.811   0.146
    2SER     BB  365   3.735   4.333   0.136
    2SER    SC1  366   3.810   4.087   0.079
    3TYR     BB  367   3.435   4.228   0.193
    3TYR    SC1  368   3.320   4.458   0.331
    3TYR    SC2  369   3.092   4.403   0.385
    3TYR    SC3  370   3.113   4.510   0.601
    1TYR     BB  371   5.805   2.637   6.154
    1TYR    SC1  372   5.586   2.797   6.002
    1TYR    SC2  373   5.721   2.855   5.811
    1TYR    SC3  374   5.531   2.825   5.663
    2SER     BB  375   5.878   2.488   5.816
    2SER    SC1  376   6.080   2.355   5.921
    3TYR     BB  377   6.060   2.562   5.561
    3TYR    SC1  378   5.859   2.657   5.373
    3TYR    SC2  379   5.973   2.721   5.170
    3TYR    SC3  380   5.795   2.625   5.036
    1TYR     BB  381   7.160   2.199   1.568
    1TYR    SC1  382   7.380   2.092   1.375
    1TYR    SC2  383   7.568   2.187   1.490
    1TYR    SC3  384   7.701   1.989   1.443
    2SER     BB  385   7.398   2.088   1.838
    2SER    SC1  386   7.234   2.188   2.019
    3TYR     BB  387   7.649   2.215   1.996
    3TYR    SC1  388   7.872   2.073   1.871
    3TYR    SC2  389   8.074   2.152   1.974
    3TYR    SC3  390   8.166   1.927   1.975
    1TYR     BB  391   7.571   1.002   5.337
    1TYR    SC1  392   7.359   1.217   5.410
    1TYR    SC2  393   7.408   1.227   5.646
    1TYR    SC3  394   7.372   1.467   5.646
    2SER     BB  395   7.798   1.205   5.560
    2SER    SC1  396   7.987   1.025   5.526
    3TYR     BB  397   7.866   1.217   5.875
    3TYR    SC1  398   7.725   1.459   5.955
    3TYR    SC2  399   7.762   1.491   6.191
    3TYR    SC3  400   7.785   1.730   6.158
    1TYR     BB  401   1.160   0.252   7.570
    1TYR    SC1  402   0.933   0.090   7.432
    1TYR    SC2  403   0.934   0.212   7.224
    1TYR    SC3  404   0.895   0.006   7.100
    2SER     BB  405   1.334   0.221   7.237
    2SER    SC1  406   1.530   0.371   7.329
    3TYR     BB  407   1.339   0.383   6.959
    3TYR    SC1  408   1.180   0.209   6.788
    3TYR    SC2  409   1.168   0.311   6.570
    3TYR    SC3  410   1.194   0.095   6.464
    1TYR     BB  411   5.013   4.566   6.496
    1TYR    SC1  412   5.284   4.717   6.518
    1TYR    SC2  413   5.404   4.543   6.635
    1TYR    SC3  414   5.605   4.593   6.508
    2SER     BB  415   5.227   4.271   6.401
    2SER    SC1  416   5.011   4.120   6.394
    3TYR     BB  417   5.386   4.037   6.556
    3TYR    SC1  418   5.661   4.128   6.530
    3TYR    SC2  419   5.802   3.966   6.640
    3TYR    SC3  420   5.967   3.985   6.464
    1TYR     BB  421   1.016   5.818   5.786
    1TYR    SC1  422   0.709   5.858   5.757
    1TYR    SC2  423   0.651   5.624   5.741
    1TYR    SC3  424   0.451   5.662   5.873
    2SER     BB  425   0.920   5.545   6.027
    2SER    SC1  426   1.174   5.483   6.054
    3TYR     BB  427   0.845   5.232   6.009
    3TYR    SC1  428   0.556   5.239   6.046
    3TYR    SC2  429   0.476   5.013   6.036
    3TYR    SC3  430   0.321   5.056   6.218
    1TYR     BB  431   2.587   5.805   4.900
    1TYR    SC1  432   2.821   6.007   4.864
    1TYR    SC2  433   2.788   6.127   5.070
    1TYR    SC3  434   3.028   6.147   5.101
    2SER     BB  435   2.714   5.779   5.254
    2SER    SC1  436   2.513   5.619   5.311
    3TYR     BB  437   2.669   5.936   5.531
    3TYR    SC1  438   2.917   6.088   5.552
    3TYR    SC2  439   2.907   6.216   5.756
    3TYR    SC3  440   3.141   6.170   5.800
    1TYR     BB  441   6.103   1.734   5.190
    1TYR    SC1  442   5.994   1.919   5.416
    1TYR    SC2  443   5.835   1.763   5.507
    1TYR    SC3  444   5.885   1.838   5.732
    2SER     BB  445   6.102   1.469   5.459
    2SER    SC1  446   6.178   1.292   5.280
    3TYR     BB  447   5.892   1.258   5.580
    3TYR    SC1  448   5.823   1.385   5.834
    3TYR    SC2  449   5.664   1.243   5.945
    3TYR    SC3  450   5.772   1.284   6.159
    1TYR     BB  451   5.145   2.309   2.587
    1TYR    SC1  452   5.297   2.355   2.319
    1TYR    SC2  453   5.140   2.240   2.177
    1TYR    SC3  454   5.172   2.406   2.003
    2SER     BB  455   4.840   2.401   2.386
    2SER    SC1  456   4.690   2.350   2.597
    3TYR     BB  457   4.628   2.248   2.198
    3TYR    SC1  458   4.714   2.334   1.933
    3TYR    SC2  459   4.568   2.230   1.772
    3TYR    SC3  460   4.564   2.434   1.640
    1TYR     BB  461   1.152   5.819   2.343
    1TYR    SC1  462   1.135   5.648   2.603
    1TYR    SC2  463   1.309   5.492   2.547
    1TYR    SC3  464   1.385   5.488   2.777
    2SER     BB  465   1.525   5.793   2.397
    2SER    SC1  466   1.563   5.921   2.170
    3TYR     BB  467   1.759   5.586   2.320
    3TYR    SC1  468   1.807   5.455   2.576
    3TYR    SC2  469   1.981   5.293   2.543
    3TYR    SC3  470   2.080   5.351   2.757
    1TYR     BB  471   3.643   7.804   6.544
    1TYR    SC1  472   3.782   7.531   6.492
    1TYR    SC2  473   3.991   7.619   6.413
    1TYR    SC3  474   4.112   7.442   6.527
    2SER     BB  475   3.974   7.899   6.698
    2SER    SC1  476   3.883   8.143   6.737
    3TYR     BB  477   4.255   8.020   6.595
    3TYR    SC1  478   4.425   7.783   6.601
    3TYR    SC2  479   4.644   7.849   6.527
    3TYR    SC3  480   4.747   7.708   6.695
    1TYR     BB  481   7.177   0.539   1.862
    1TYR    SC1  482   7.384   0.348   1.730
    1TYR    SC2  483   7.286   0.347   1.510
    1TYR    SC3  484   7.507   0.346   1.409
    2SER     BB  485   7.218   0.739   1.545
    2SER    SC1  486   7.032   0.906   1.630
    3TYR     BB  487   7.086   0.742   1.250
    3TYR    SC1  488   7.299   0.621   1.092
    3TYR    SC2  489   7.223   0.612   0.864
    3TYR    SC3  490   7.444   0.675   0.784
    1TYR     BB  491   2.575   3.940   0.743
    1TYR    SC1  492   2.389   3.871   0.983
    1TYR    SC2  493   2.299   4.092   1.014
    1TYR    SC3  494   2.080   3.999   1.065
    2SER     BB  495   2.277   4.134   0.617
    2SER    SC1  496   2.422   4.219   0.414
    3TYR     BB  497   2.157   4.430   0.656
    3TYR    SC1  498   1.931   4.377   0.833
    3TYR    SC2  499   1.823   4.588   0.877
    3TYR    SC3  500   1.605   4.483   0.861
    1TYR     BB  501   4.739   0.157   0.812
    1TYR    SC1  502   4.564   0.166   0.555
    1TYR    SC2  503   4.378   0.285   0.651
    1TYR    SC3  504   4.349   0.411   0.445
    2SER     BB  505   4.636   0.518   0.849
    2SER    SC1  506   4.764   0.527   1.079
    3TYR     BB  507   4.390   0.679   0.979
    3TYR    SC1  508   4.241   0.757   0.741
    3TYR    SC2  509   4.048   0.882   0.814
    3TYR    SC3  510   4.075   1.038   0.630
    1TYR     BB  511   6.707   7.222   6.915
    1TYR    SC1  512   6.690   6.990   6.708
    1TYR    SC2  513   6.571   6.835   6.849
    1TYR    SC3  514   6.441   6.758   6.658
    2SER     BB  515   6.346   7.136   6.983
    2SER    SC1  516   6.342   7.316   7.175
    3TYR     BB  517   6.185   6.931   7.172
    3TYR    SC1  518   6.100   6.730   6.978
    3TYR    SC2  519   5.976   6.562   7.098
    3TYR    SC3  520   5.816   6.546   6.915
    1TYR     BB  521   7.781   6.070   6.843
    1TYR    SC1  522   7.525   5.970   6.988
    1TYR    SC2  523   7.634   5.888   7.186
    1TYR    SC3  524   7.450   5.967   7.324
    2SER     BB  525   7.873   6.208   7.182
    2SER    SC1  526   8.105   6.287   7.084
    3TYR     BB  527   8.021   6.101   7.447
    3TYR    SC1  528   7.795   6.061   7.626
    3TYR    SC2  529   7.882   5.979   7.836
    3TYR    SC3  530   7.725   6.118   7.959
    1TYR     BB  531   0.226   4.204   0.545
    1TYR    SC1  532  -0.021   4.150   0.727
    1TYR    SC2  533   0.089   4.003   0.882
    1TYR    SC3  534  -0.036   4.098   1.067
    2SER     BB  535   0.410   4.239   0.872
    2SER    SC1  536   0.635   4.270   0.738
    3TYR     BB  537   0.560   4.043   1.079
    3TYR    SC1  538   0.366   4.031   1.296
    3TYR    SC2  539   0.457   3.887   1.467
    3TYR    SC3  540   0.374   4.035   1.641
    1TYR     BB  541   4.163   6.517   7.168
    1TYR    SC1  542   4.266   6.802   7.242
    1TYR    SC2  543   4.471   6.791   7.115
    1TYR    SC3  544   4.447   7.025   7.052
    2SER     BB  545   4.273   6.609   6.820
    2SER    SC1  546   4.208   6.366   6.739
    3TYR     BB  547   4.545   6.593   6.648
    3TYR    SC1  548   4.628   6.872   6.648
    3TYR    SC2  549   4.834   6.887   6.523
    3TYR    SC3  550   4.761   7.094   6.421
    1TYR     BB  551   7.790   3.342   1.204
    1TYR    SC1  552   7.779   3.082   1.373
    1TYR    SC2  553   7.755   3.188   1.588
    1TYR    SC3  554   7.602   3.014   1.660
    2SER     BB  555   7.504   3.452   1.424
    2SER    SC1  556   7.507   3.687   1.306
    3TYR     BB  557   7.470   3.596   1.710
    3TYR    SC1  558   7.392   3.371   1.879
    3TYR    SC2  559   7.361   3.455   2.102
    3TYR    SC3  560   7.166   3.314   2.131
    1TYR     BB  561   5.852   4.133   2.557
    1TYR    SC1  562   5.868   4.442   2.520
    1TYR    SC2  563   5.715   4.457   2.335
    1TYR    SC3  564   5.624   4.664   2.422
    2SER     BB  565   5.481   4.185   2.512
    2SER    SC1  566   5.447   3.924   2.523
    3TYR     BB  567   5.275   4.203   2.265
    3TYR    SC1  568   5.223   4.489   2.254
    3TYR    SC2  569   5.069   4.528   2.074
    3TYR    SC3  570   4.950   4.693   2.207
    1TYR     BB  571   4.021   5.869   1.153
    1TYR    SC1  572   3.735   5.866   1.275
    1TYR    SC2  573   3.623   5.965   1.087
    1TYR    SC3  574   3.431   5.819   1.120
    2SER     BB  575   3.849   5.745   0.841
    2SER    SC1  576   4.078   5.756   0.713
    3TYR     BB  577   3.700   5.876   0.587
    3TYR    SC1  578   3.421   5.824   0.652
    3TYR    SC2  579   3.287   5.915   0.473
    3TYR    SC3  580   3.139   5.723   0.482
    1TYR     BB  581   6.828   7.557   4.057
    1TYR    SC1  582   6.818   7.306   3.874
    1TYR    SC2  583   6.796   7.143   4.050
    1TYR    SC3  584   6.643   7.012   3.914
    2SER     BB  585   6.545   7.389   4.240
    2SER    SC1  586   6.547   7.583   4.417
    3TYR     BB  587   6.514   7.173   4.477
    3TYR    SC1  588   6.436   6.935   4.327
    3TYR    SC2  589   6.407   6.756   4.486
    3TYR    SC3  590   6.211   6.677   4.365
    1TYR     BB  591   1.977   0.614   4.272
    1TYR    SC1  592   1.768   0.752   4.457
    1TYR    SC2  593   1.894   0.953   4.498
    1TYR    SC3  594   1.691   1.086   4.490
    2SER     BB  595   2.007   0.955   4.115
    2SER    SC1  596   2.199   0.864   3.959
    3TYR     BB  597   2.177   1.224   4.167
    3TYR    SC1  598   1.974   1.398   4.284
    3TYR    SC2  599   2.079   1.609   4.333
    3TYR    SC3  600   1.881   1.728   4.259
    1TYR     BB  601   6.531   4.021   6.043
    1TYR    SC1  602   6.711   3.902   5.819
    1TYR    SC2  603   6.542   3.765   5.716
    1TYR    SC3  604   6.631   3.816   5.496
    2SER     BB  605   6.278   4.062   5.766
    2SER    SC1  606   6.103   4.149   5.942
    3TYR     BB  607   6.050   3.881   5.628
    3TYR    SC1  608   6.178   3.810   5.376
    3TYR    SC2  609   6.023   3.672   5.253
    3TYR    SC3  610   6.084   3.783   5.046
    1TYR     BB  611   4.949   2.223   4.336
    1TYR    SC1  612   4.652   2.296   4.278
    1TYR    SC2  613   4.695   2.499   4.156
    1TYR    SC3  614   4.513   2.449   4.003
    2SER     BB  615   5.002   2.317   3.975
    2SER    SC1  616   5.261   2.277   4.006
    3TYR     BB  617   5.063   2.587   3.809
    3TYR    SC1  618   4.803   2.640   3.688
    3TYR    SC2  619   4.824   2.841   3.557
    3TYR    SC3  620   4.685   2.745   3.383
    1TYR     BB  621   5.789   3.653   0.359
    1TYR    SC1  622   6.050   3.808   0.291
    1TYR    SC2  623   5.970   4.027   0.349
    1TYR    SC3  624   6.186   4.086   0.442
    2SER     BB  625   5.785   3.871   0.667
    2SER    SC1  626   5.553   3.765   0.735
    3TYR     BB  627   5.675   4.163   0.746
    3TYR    SC1  628   5.923   4.317   0.754
    3TYR    SC2  629   5.866   4.543   0.812
    3TYR    SC3  630   6.062   4.559   0.955
    1TYR     BB  631   3.951   6.850   5.180
    1TYR    SC1  632   3.981   6.708   5.455
    1TYR    SC2  633   3.899   6.890   5.590
    1TYR    SC3  634   3.785   6.734   5.737
    2SER     BB  635   3.617   6.961   5.315
    2SER    SC1  636   3.579   7.103   5.097
    3TYR     BB  637   3.506   7.205   5.494
    3TYR    SC1  638   3.462   7.073   5.750
    3TYR    SC2  639   3.377   7.238   5.903
    3TYR    SC3  640   3.221   7.077   5.996
    1TYR     BB  641   3.213   1.544   5.582
    1TYR    SC1  642   3.436   1.489   5.373
    1TYR    SC2  643   3.292   1.412   5.196
    1TYR    SC3  644   3.430   1.524   5.031
    2SER     BB  645   3.032   1.700   5.291
    2SER    SC1  646   2.823   1.742   5.446
    3TYR     BB  647   2.836   1.600   5.055
    3TYR    SC1  648   3.016   1.604   4.826
    3TYR    SC2  649   2.891   1.531   4.634
    3TYR    SC3  650   3.000   1.698   4.495
    1TYR     BB  651   2.100   6.480   2.951
    1TYR    SC1  652   1.983   6.667   3.171
    1TYR    SC2  653   1.834   6.506   3.270
    1TYR    SC3  654   1.882   6.593   3.491
    2SER     BB  655   2.118   6.227   3.230
    2SER    SC1  656   2.203   6.047   3.058
    3TYR     BB  657   1.921   6.009   3.363
    3TYR    SC1  658   1.848   6.141   3.612
    3TYR    SC2  659   1.698   5.995   3.730
    3TYR    SC3  660   1.806   6.051   3.941
    1TYR     BB  661   6.882   1.430   2.615
    1TYR    SC1  662   6.988   1.194   2.788
    1TYR    SC2  663   7.120   1.326   2.940
    1TYR    SC3  664   7.057   1.182   3.125
    2SER     BB  665   6.827   1.598   2.948
    2SER    SC1  666   6.749   1.816   2.822
    3TYR     BB  667   7.000   1.778   3.152
    3TYR    SC1  668   7.058   1.585   3.363
    3TYR    SC2  669   7.190   1.698   3.530
    3TYR    SC3  670   7.067   1.585   3.707
    1TYR     BB  671   2.115   7.236   6.260
    1TYR    SC1  672   2.381   7.104   6.169
    1TYR    SC2  673   2.326   7.086   5.936
    1TYR    SC3  674   2.555   7.141   5.874
    2SER     BB  675   2.159   7.449   5.952
    2SER    SC1  676   1.926   7.562   6.001
    3TYR     BB  677   2.083   7.428   5.639
    3TYR    SC1  678   2.343   7.367   5.522
    3TYR    SC2  679   2.312   7.346   5.284
    3TYR    SC3  680   2.521   7.462   5.243
    1TYR     BB  681   4.691   6.120   8.290
    1TYR    SC1  682   4.574   6.374   8.154
    1TYR    SC2  683   4.740   6.393   7.981
    1TYR    SC3  684   4.570   6.463   7.822
    2SER     BB  685   4.732   5.996   7.936
    2SER    SC1  686   4.850   5.779   8.029
    3TYR     BB  687   4.954   6.018   7.704
    3TYR    SC1  688   4.830   6.211   7.524
    3TYR    SC2  689   4.980   6.245   7.339
    3TYR    SC3  690   4.793   6.249   7.184
    1TYR     BB  691   6.560   5.057   3.367
    1TYR    SC1  692   6.653   5.053   3.070
    1TYR    SC2  693   6.825   4.887   3.097
    1TYR    SC3  694   6.770   4.791   2.881
    2SER     BB  695   6.583   4.682   3.340
    2SER    SC1  696   6.522   4.662   3.595
    3TYR     BB  697   6.812   4.457   3.377
    3TYR    SC1  698   6.870   4.389   3.100
    3TYR    SC2  699   7.041   4.220   3.101
    3TYR    SC3  700   6.931   4.102   2.920
    1TYR     BB  701   1.716   0.727   1.899
    1TYR    SC1  702   1.909   0.966   1.850
    1TYR    SC2  703   2.055   0.854   1.695
    1TYR    SC3  704   2.078   1.057   1.564
    2SER     BB  705   1.735   0.685   1.525
    2SER    SC1  706   1.586   0.469   1.544
    3TYR     BB  707   1.928   0.533   1.315
    3TYR    SC1  708   2.079   0.756   1.205
    3TYR    SC2  709   2.233   0.667   1.043
    3TYR    SC3  710   2.192   0.855   0.895
    1TYR     BB  711   7.396   2.912   8.450
    1TYR    SC1  712   7.540   2.650   8.365
    1TYR    SC2  713   7.458   2.645   8.139
    1TYR    SC3  714   7.672   2.563   8.059
    2SER     BB  715   7.511   3.040   8.115
    2SER    SC1  716   7.381   3.265   8.160
    3TYR     BB  717   7.402   3.037   7.812
    3TYR    SC1  718   7.575   2.836   7.691
    3TYR    SC2  719   7.511   2.814   7.460
    3TYR    SC3  720   7.744   2.796   7.394
    1TYR     BB  721   4.904   0.069   2.137
    1TYR    SC1  722   4.620  -0.053   2.166
    1TYR    SC2  723   4.497   0.144   2.103
    1TYR    SC3  724   4.334   0.008   1.984
    2SER     BB  725   4.767   0.214   1.817
    2SER    SC1  726   4.994   0.342   1.780
    3TYR     BB  727   4.604   0.479   1.730
    3TYR    SC1  728   4.337   0.370   1.687
    3TYR    SC2  729   4.195   0.552   1.620
    3TYR    SC3  730   4.084   0.410   1.457
    1TYR     BB  731   1.060   5.538  -0.001
    1TYR    SC1  732   1.206   5.761   0.160
    1TYR    SC2  733   1.026   5.807   0.314
    1TYR    SC3  734   1.186   5.839   0.495
    2SER     BB  735   0.954   5.415   0.340
    2SER    SC1  736   0.810   5.227   0.224
    3TYR     BB  737   0.714   5.473   0.546
    3TYR    SC1  738   0.850   5.633   0.748
    3TYR    SC2  739   0.688   5.691   0.917
    3TYR    SC3  740   0.852   5.655   1.092
    1TYR     BB  741   6.460   6.821   3.147
    1TYR    SC1  742   6.742   6.924   3.230
    1TYR    SC2  743   6.719   7.146   3.139
    1TYR    SC3  744   6.840   7.239   3.328
    2SER     BB  745   6.343   7.157   3.273
    2SER    SC1  746   6.098   7.097   3.194
    3TYR     BB  747   6.309   7.454   3.152
    3TYR    SC1  748   6.536   7.591   3.274
    3TYR    SC2  749   6.533   7.819   3.198
    3TYR    SC3  750   6.596   7.897   3.419
    1TYR     BB  751   7.683   1.432  -0.223
    1TYR    SC1  752   7.437   1.590  -0.115
    1TYR    SC2  753   7.440   1.498   0.107
    1TYR    SC3  754   7.378   1.714   0.201
    2SER     BB  755   7.839   1.523   0.108
    2SER    SC1  756   8.051   1.380   0.043
    3TYR     BB  757   7.846   1.400   0.405
    3TYR    SC1  758   7.666   1.581   0.546
    3TYR    SC2  759   7.654   1.508   0.775
    3TYR    SC3  760   7.656   1.738   0.852
    1TYR     BB  761   4.070  -0.181   2.946
    1TYR    SC1  762   4.231  -0.133   3.208
    1TYR    SC2  763   4.384   0.030   3.119
    1TYR    SC3  764   4.377   0.156   3.326
    2SER     BB  765   4.082   0.194   2.915
    2SER    SC1  766   3.961   0.176   2.681
    3TYR     BB  767   4.285   0.413   2.793
    3TYR    SC1  768   4.404   0.522   3.036
    3TYR    SC2  769   4.562   0.691   2.969
    3TYR    SC3  770   4.493   0.833   3.154
    1TYR     BB  771   5.108   2.956   8.399
    1TYR    SC1  772   5.110   2.697   8.228
    1TYR    SC2  773   5.027   2.796   8.025
    1TYR    SC3  774   5.175   2.656   7.892
    2SER     BB  775   5.258   3.115   8.092
    2SER    SC1  776   5.250   3.349   8.212
    3TYR     BB  777   5.149   3.250   7.820
    3TYR    SC1  778   5.203   3.040   7.626
    3TYR    SC2  779   5.129   3.120   7.411
    3TYR    SC3  780   5.323   3.022   7.304
    1TYR     BB  781   0.478   7.499   1.439
    1TYR    SC1  782   0.221   7.336   1.371
    1TYR    SC2  783   0.316   7.118   1.408
    1TYR    SC3  784   0.107   7.041   1.506
    2SER     BB  785   0.508   7.259   1.728
    2SER    SC1  786   0.737   7.372   1.793
    3TYR     BB  787   0.636   6.968   1.779
    3TYR    SC1  788   0.397   6.801   1.786
    3TYR    SC2  789   0.468   6.574   1.823
    3TYR    SC3  790   0.281   6.537   1.973
    1TYR     BB  791   1.752   3.550   5.353
    1TYR    SC1  792   2.018   3.417   5.446
    1TYR    SC2  793   2.039   3.537   5.653
    1TYR    SC3  794   2.125   3.338   5.763
    2SER     BB  795   1.646   3.499   5.711
    2SER    SC1  796   1.420   3.624   5.659
    3TYR     BB  797   1.672   3.660   5.989
    3TYR    SC1  798   1.879   3.506   6.125
    3TYR    SC2  799   1.917   3.609   6.339
    3TYR    SC3  800   1.937   3.391   6.444
    1TYR     BB  801   6.948   5.868   4.333
    1TYR    SC1  802   6.707   5.718   4.459
    1TYR    SC2  803   6.826   5.622   4.644
    1TYR    SC3  804   6.635   5.657   4.790
    2SER     BB  805   7.024   5.966   4.688
    2SER    SC1  806   7.244   6.086   4.605
    3TYR     BB  807   7.187   5.840   4.937
    3TYR    SC1  808   6.969   5.748   5.107
    3TYR    SC2  809   7.067   5.648   5.303
    3TYR    SC3  810   6.895   5.748   5.443
    1TYR     BB  811   4.892   7.314   5.894
    1TYR    SC1  812   4.752   7.578   5.809
    1TYR    SC2  813   4.830   7.580   5.581
    1TYR    SC3  814   4.616   7.666   5.505
    2SER     BB  815   4.770   7.186   5.561
    2SER    SC1  816   4.896   6.959   5.605
    3TYR     BB  817   4.875   7.186   5.256
    3TYR    SC1  818   4.703   7.389   5.137
    3TYR    SC2  819   4.764   7.409   4.905
    3TYR    SC3  820   4.531   7.431   4.842
    1TYR     BB  821   3.207   0.045   5.077
    1TYR    SC1  822   3.294   0.270   4.881
    1TYR    SC2  823   3.097   0.407   4.904
    1TYR    SC3  824   3.232   0.608   4.894
    2SER     BB  825   3.097   0.331   5.297
    2SER    SC1  826   3.000   0.158   5.470
    3TYR     BB  827   2.833   0.513   5.331
    3TYR    SC1  828   2.920   0.763   5.207
    3TYR    SC2  829   2.736   0.918   5.220
    3TYR    SC3  830   2.889   1.099   5.272
    1TYR     BB  831   5.455   0.713   6.903
    1TYR    SC1  832   5.663   0.858   7.083
    1TYR    SC2  833   5.512   1.020   7.177
    1TYR    SC3  834   5.623   1.002   7.393
    2SER     BB  835   5.233   0.736   7.207
    2SER    SC1  836   5.036   0.630   7.068
    3TYR     BB  837   5.028   0.951   7.333
    3TYR    SC1  838   5.186   1.057   7.554
    3TYR    SC2  839   5.052   1.223   7.666
    3TYR    SC3  840   5.130   1.145   7.882
    1TYR     BB  841   4.211   0.231   4.575
    1TYR    SC1  842   4.072   0.467   4.427
    1TYR    SC2  843   4.210   0.463   4.230
    1TYR    SC3  844   4.018   0.513   4.091
    2SER     BB  845   4.200   0.063   4.238
    2SER    SC1  846   4.333  -0.141   4.339
    3TYR     BB  847   4.385   0.054   3.974
    3TYR    SC1  848   4.233   0.223   3.792
    3TYR    SC2  849   4.354   0.232   3.584
    3TYR    SC3  850   4.146   0.218   3.459
    1TYR     BB  851   4.629   2.530   7.382
    1TYR    SC1  852   4.875   2.719   7.348
    1TYR    SC2  853   5.036   2.547   7.300
    1TYR    SC3  854   5.145   2.690   7.137
    2SER     BB  855   4.765   2.361   7.073
    2SER    SC1  856   4.574   2.180   7.093
    3TYR     BB  857   4.979   2.129   7.007
    3TYR    SC1  858   5.203   2.286   6.907
    3TYR    SC2  859   5.380   2.132   6.851
    3TYR    SC3  860   5.433   2.261   6.652
    1TYR     BB  861   2.588   2.998   6.112
    1TYR    SC1  862   2.886   2.911   6.099
    1TYR    SC2  863   2.959   3.030   6.296
    1TYR    SC3  864   3.107   2.846   6.355
    2SER     BB  865   2.621   2.922   6.480
    2SER    SC1  866   2.375   3.008   6.517
    3TYR     BB  867   2.716   3.080   6.744
    3TYR    SC1  868   2.978   2.961   6.791
    3TYR    SC2  869   3.071   3.065   6.987
    3TYR    SC3  870   3.160   2.852   7.062
    1TYR     BB  871   0.777   2.820   5.223
    1TYR    SC1  872   0.799   3.094   5.078
    1TYR    SC2  873   0.797   3.009   4.853
    1TYR    SC3  874   0.662   3.197   4.779
    2SER     BB  875   0.515   2.746   4.962
    2SER    SC1  876   0.492   2.502   5.058
    3TYR     BB  877   0.510   2.629   4.662
    3TYR    SC1  878   0.463   2.871   4.507
    3TYR    SC2  879   0.455   2.809   4.274
    3TYR    SC3  880   0.272   2.963   4.236
    1TYR     BB  881   2.487   2.447   4.153
    1TYR    SC1  882   2.303   2.685   4.072
    1TYR    SC2  883   2.464   2.801   3.936
    1TYR    SC3  884   2.291   2.863   3.778
    2SER     BB  885   2.587   2.450   3.789
    2SER    SC1  886   2.762   2.260   3.838
    3TYR     BB  887   2.804   2.604   3.607
    3TYR    SC1  888   2.635   2.796   3.467
    3TYR    SC2  889   2.777   2.925   3.322
    3TYR    SC3  890   2.609   2.920   3.147
    1TYR     BB  891   2.537   2.320   1.476
    1TYR    SC1  892   2.266   2.392   1.611
    1TYR    SC2  893   2.270   2.627   1.560
    1TYR    SC3  894   2.030   2.626   1.520
    2SER     BB  895   2.413   2.542   1.197
    2SER    SC1  896   2.642   2.509   1.072
    3TYR     BB  897   2.419   2.856   1.126
    3TYR    SC1  898   2.145   2.934   1.185
    3TYR    SC2  899   2.124   3.169   1.140
    3TYR    SC3  900   1.904   3.134   1.043
    1TYR     BB  901   0.441   7.456   5.278
    1TYR    SC1  902   0.737   7.480   5.369
    1TYR    SC2  903   0.693   7.537   5.598
    1TYR    SC3  904   0.881   7.402   5.671
    2SER     BB  905   0.396   7.269   5.602
    2SER    SC1  906   0.138   7.252   5.553
    3TYR     BB  907   0.334   7.343   5.909
    3TYR    SC1  908   0.596   7.306   6.031
    3TYR    SC2  909   0.575   7.357   6.266
    3TYR    SC3  910   0.721   7.171   6.322
    1TYR     BB  911   2.559   4.955   7.450
    1TYR    SC1  912   2.626   5.198   7.632
    1TYR    SC2  913   2.607   5.367   7.462
    1TYR    SC3  914   2.505   5.520   7.621
    2SER     BB  915   2.286   5.179   7.317
    2SER    SC1  916   2.223   4.992   7.142
    3TYR     BB  917   2.259   5.404   7.088
    3TYR    SC1  918   2.253   5.647   7.247
    3TYR    SC2  919   2.233   5.833   7.096
    3TYR    SC3  920   2.078   5.944   7.247
    1TYR     BB  921   0.909   1.310   7.264
    1TYR    SC1  922   1.172   1.346   7.102
    1TYR    SC2  923   1.124   1.566   7.017
    1TYR    SC3  924   1.357   1.631   7.044
    2SER     BB  925   0.973   1.665   7.374
    2SER    SC1  926   0.744   1.663   7.504
    3TYR     BB  927   0.907   1.961   7.263
    3TYR    SC1  928   1.168   2.043   7.162
    3TYR    SC2  929   1.144   2.265   7.072
    3TYR    SC3  930   1.359   2.329   7.164
    1TYR     BB  931   6.659   4.053  -0.308
    1TYR    SC1  932   6.527   4.112  -0.032
    1TYR    SC2  933   6.723   4.072   0.102
    1TYR    SC3  934   6.663   4.255   0.250
    2SER     BB  935   6.944   4.260  -0.173
    2SER    SC1  936   7.081   4.209  -0.392
    3TYR     BB  937   7.208   4.207   0.005
    3TYR    SC1  938   7.127   4.319   0.262
    3TYR    SC2  939   7.311   4.292   0.414
    3TYR    SC3  940   7.271   4.512   0.508
    1TYR     BB  941  -0.096   5.346   4.360
    1TYR    SC1  942  -0.096   5.386   4.668
    1TYR    SC2  943   0.119   5.493   4.684
    1TYR    SC3  944   0.035   5.642   4.857
    2SER     BB  945   0.033   5.700   4.353
    2SER    SC1  946   0.058   5.683   4.091
    3TYR     BB  947   0.320   5.846   4.371
    3TYR    SC1  948   0.314   5.951   4.642
    3TYR    SC2  949   0.522   6.067   4.680
    3TYR    SC3  950   0.406   6.243   4.800
    1TYR     BB  951   5.808   7.412   1.691
    1TYR    SC1  952   5.660   7.178   1.550
    1TYR    SC2  953   5.641   7.282   1.333
    1TYR    SC3  954   5.682   7.069   1.224
    2SER     BB  955   6.013   7.422   1.374
    2SER    SC1  956   6.141   7.633   1.467
    3TYR     BB  957   5.992   7.562   1.085
    3TYR    SC1  958   5.914   7.336   0.918
    3TYR    SC2  959   5.891   7.418   0.692
    3TYR    SC3  960   5.995   7.216   0.606
    1TYR     BB  961   2.672   0.571   0.158
    1TYR    SC1  962   2.517   0.841   0.168
    1TYR    SC2  963   2.704   0.979   0.230
    1TYR    SC3  964   2.624   1.158   0.087
    2SER     BB  965   2.935   0.772  -0.022
    2SER    SC1  966   3.091   0.560  -0.026
    3TYR     BB  967   3.187   0.956   0.060
    3TYR    SC1  968   3.081   1.223   0.011
    3TYR    SC2  969   3.255   1.381   0.066
    3TYR    SC3  970   3.196   1.517  -0.126
    1TYR     BB  971   4.511   2.063   5.380
    1TYR    SC1  972   4.263   1.874   5.380
    1TYR    SC2  973   4.385   1.668   5.406
    1TYR    SC3  974   4.212   1.581   5.553
    2SER     BB  975   4.627   1.849   5.668
    2SER    SC1  976   4.852   1.986   5.675
    3TYR     BB  977   4.791   1.575   5.705
    3TYR    SC1  978   4.578   1.389   5.774
    3TYR    SC2  979   4.678   1.173   5.807
    3TYR    SC3  980   4.532   1.131   5.997
    1TYR     BB  981   4.172   5.096   3.303
    1TYR    SC1  982   4.128   5.143   2.999
    1TYR    SC2  983   3.904   5.230   3.015
    1TYR    SC3  984   3.951   5.391   2.839
    2SER     BB  985   4.013   5.436   3.340
    2SER    SC1  986   4.024   5.409   3.602
    3TYR     BB  987   3.714   5.554   3.364
    3TYR    SC1  988   3.676   5.667   3.099
    3TYR    SC2  989   3.455   5.762   3.092
    3TYR    SC3  990   3.538   5.952   2.965
    1TYR     BB  991   4.447   5.415   1.789
    1TYR    SC1  992   4.657   5.492   1.572
    1TYR    SC2  993   4.796   5.629   1.714
    1TYR    SC3  994   4.996   5.545   1.604
    2SER     BB  995   4.749   5.363   2.009
    2SER    SC1  996   4.589   5.312   2.212
    3TYR     BB  997   4.935   5.545   2.200
    3TYR    SC1  998   5.174   5.574   2.036
    3TYR    SC2  999   5.330   5.709   2.160
    3TYR    SC3 1000   5.514   5.569   2.086
    4W        W 1001   0.349   1.633   2.100
    5W        W 1002   5.106   7.621   1.686
    6W        W 1003   5.683   0.072   4.002
    7W        W 1004   3.484   7.360   2.147
    8W        W 1005   2.537   3.319   3.106
    9W        W 1006   3.102   5.951   3.455
   10W        W 1007   3.635   6.731   2.684
   11W        W 1008   3.112   3.406   6.189
   12W        W 1009   3.682   2.669   5.460
   13W        W 1010   6.617   2.508   3.357
   14W        W 1011   0.928   6.753   6.162
   15W        W 1012   2.972   7.428   4.929
   16W        W 1013   7.158   3.321   3.628
   17W        W 1014   6.117   6.459   3.240
   18W        W 1015   3.548   2.037   0.913
   19W        W 1016   4.614   4.267   3.949
   20W        W 1017   3.255   5.763   3.879
   21W        W 1018   2.552   6.182   3.404
   22W        W 1019   5.594   4.501   0.154
   23W        W 1020   3.957   5.410   1.281
   24W        W 1021   0.331   3.089   3.924
   25W        W 1022   1.975   6.238   5.081
   26W        W 1023   5.364   2.299   5.526
   27W        W 1024   1.453   4.276   3.805
   28W        W 1025   3.032   2.144   5.556
   29W        W 1026   0.429   6.932   3.776
   30W        W 1027   1.095   7.587   5.519
   31W        W 1028   7.929   1.101   3.258
   32W        W 1029   0.180   4.842   4.244
   33W        W 1030   7.654   6.841   5.972
   34W        W 1031   3.181   1.827   1.211
   35W        W 1032   3.860   6.313   1.114
   36W        W 1033   3.430   4.024   2.538
   37W        W 1034   3.545   3.352   0.603
   38W        W 1035   2.630   7.135   2.585
   39W        W 1036   1.440   7.637   5.136
   40W        W 1037   5.533   0.490   3.665
   41W        W 1038   7.517   7.177   2.175
   42W        W 1039   3.736   4.560   6.753
   43W        W 1040   7.851   2.797   3.902
   44W        W 1041   4.599   2.116   6.133
   45W        W 1042   4.568   6.469   2.461
   46W        W 1043   5.681   4.462   4.970
   47W        W 1044   5.676   1.433   2.966
   48W        W 1045   4.819   6.067   6.364
   49W        W 1046   0.606   2.177   6.213
   50W        W 1047   4.639   0.850   7.747
   51W        W 1048   1.119   5.630   1.968
   52W        W 1049   2.617   7.080   0.519
   53W        W 1050   1.180   3.272   4.125
   54W        W 1051   3.481   0.246   1.393
   55W        W 1052   6.733   1.195   3.868
   56W        W 1053   1.407   0.692   3.619
   57W        W 1054   1.242   7.332   1.453
   58W        W 1055   1.855   6.457   3.898
   59W        W 1056   5.253   5.959   0.677
   60W        W 1057   2.220   4.370   2.646
   61W        W 1058   6.449   1.641   4.888
   62W        W 1059   0.387   1.607   7.962
   63W        W 1060   1.261   6.947   0.428
   64W        W 1061   2.307   7.508   1.384
   65W        W 1062   6.442   3.540   3.828
   66W        W 1063   3.367   3.532   4.367
   67W        W 1064   3.462   3.638   5.146
   68W        W 1065   6.619   6.519   2.671
   69W        W 1066   7.309   0.266   0.194
   70W        W 1067   3.211   0.699   7.320
   71W        W 1068   6.292   0.807   0.486
   72W        W 1069   5.880   5.100   7.157
   73W        W 1070   6.438   4.924   7.950
   74W        W 1071   5.937   5.515   6.608
   75W        W 1072   1.608   1.490   1.416
   76W        W 1073   0.024   0.654   7.928
   77W        W 1074   6.084   2.032   2.232
   78W        W 1075   5.349   6.095   3.993
   79W        W 1076   1.816   2.172   7.150
   80W        W 1077   5.173   2.658   1.706
   81W        W 1078   6.188   7.690   0.733
   82W        W 1079   1.268   4.458   2.892
   83W        W 1080   0.819   0.266   0.956
   84W        W 1081   0.750   1.601   4.399
   85W        W 1082   1.797   0.656   7.022
   86W        W 1083   4.102   4.177   4.143
   87W        W 1084   2.391   5.181   5.671
   88W        W 1085   0.259   7.046   0.824
   89W        W 1086   5.650   7.086   2.695
   90W        W 1087   6.056   5.766   5.520
   91W        W 1088   5.269   3.839   4.784
   92W        W 1089   2.142   3.523   0.605
   93W        W 1090   5.241   5.224   4.271
   94W        W 1091   2.032   0.198   0.976
   95W        W 1092   5.922   4.214   1.251
   96W        W 1093   2.383   2.228   2.244
   97W        W 1094   6.591   0.284   2.179
   98W        W 1095   0.546   4.305   3.982
   99W        W 1096   2.239   4.351   6.496
  100W        W 1097   2.076   4.846   5.023
  101W        W 1098   3.515   4.667   4.942
  102W        W 1099   3.714   5.802   5.639
  103W        W 1100   0.394   3.751   3.247
  104W        W 1101   6.165   6.953   1.111
  105W        W 1102   3.678   0.463   4.635
  106W        W 1103   3.544   5.250   4.852
  107W        W 1104   7.724   7.128   1.245
  108W        W 1105   4.011   0.806   7.564
  109W        W 1106   0.569   2.820   0.459
  110W        W 1107   5.281   7.196   5.432
  111W        W 1108   1.384   0.021   3.146
  112W        W 1109   0.853   7.400   1.141
  113W        W 1110   2.052   0.513   6.055
  114W        W 1111   3.922   2.298   4.099
  115W        W 1112   5.561   0.088   6.628
  116W        W 1113   0.770   0.423   0.434
  117W        W 1114   2.607   7.020   6.969
  118W        W 1115   3.742   4.648   2.876
  119W        W 1116   3.497   4.702   7.377
  120W        W 1117   2.552   4.984   3.352
  121W        W 1118   2.997   4.317   1.667
  122W        W 1119   1.083   6.169   5.039
  123W        W 1120   6.865   3.091   5.000
  124W        W 1121   3.990   4.941   5.149
  125W        W 1122   5.907   7.058   7.581
  126W        W 1123   3.354   0.720   1.981
  127W        W 1124   6.021   3.539   3.652
  128W        W 1125   2.808   2.563   2.111
  129W        W 1126   7.565   5.936   3.753
  130W        W 1127   4.190   2.869   5.895
  131W        W 1128   7.276   5.425   2.118
  132W        W 1129   6.424   7.762   5.954
  133W        W 1130   0.846   5.585   3.603
  134W        W 1131   4.572   5.569   2.581
  135W        W 1132   4.457   1.760   0.882
  136W        W 1133   1.068   1.917   5.980
  137W        W 1134   3.216   4.376   2.811
  138W        W 1135   0.845   5.393   2.613
  139W        W 1136   2.615   3.713   1.550
  140W        W 1137   3.555   4.534   2.444
  141W        W 1138   2.818   0.909   4.513
  142W        W 1139   7.292   5.438   1.135
  143W        W 1140   4.900   2.969   1.462
  144W        W 1141   4.043   3.164   1.239
  145W        W 1142   2.314   6.966   3.819
  146W        W 1143   5.000   7.333   7.344
  147W        W 1144   6.190   6.168   2.866
  148W        W 1145   0.049   0.664   0.817
  149W        W 1146   0.564   4.822   1.825
  150W        W 1147   4.805   5.036   6.253
  151W        W 1148   3.710   7.655   3.799
  152W        W 1149   7.245   2.690   7.612
  153W        W 1150   4.274   3.116   2.080
  154W        W 1151   5.786   5.809   0.667
  155W        W 1152   0.612   1.030   7.085
  156W        W 1153   0.018   3.626   5.211
  157W        W 1154   7.280   1.793   5.959
  158W        W 1155   2.590   4.619   1.098
  159W        W 1156   0.505   5.802   6.467
  160W        W 1157   1.273   0.657   6.567
  161W        W 1158   7.214   5.267   4.884
  162W        W 1159   0.325   6.638   1.251
  163W        W 1160   4.013   7.430   1.986
  164W        W 1161   6.418   3.571   0.115
  165W        W 1162   5.923   0.865   0.157
  166W        W 1163   2.861   6.097   1.457
  167W        W 1164   2.192   5.954   2.613
  168W        W 1165   7.281   6.851   6.945
  169W        W 1166   3.774   1.376   4.335
  170W        W 1167   3.628   3.244   0.059
  171W        W 1168   0.347   7.146   3.114
  172W        W 1169   3.678   3.672   0.904
  173W        W 1170   7.741   0.449   0.390
  174W        W 1171   1.469   6.671   5.382
  175W        W 1172   2.608   7.013   1.645
  176W        W 1173   6.769   5.310   0.874
  177W        W 1174   6.324   2.586   2.869
  178W        W 1175   6.121   1.236   7.826
  179W        W 1176   7.235   4.956   6.943
  180W        W 1177   3.061   4.133   3.268
  181W        W 1178   3.865   0.144   3.816
  182W        W 1179   5.208   1.841   7.851
  183W        W 1180   4.545   3.698   6.398
  184W        W 1181   3.100   4.999   4.788
  185W        W 1182   5.971   3.294   4.615
  186W        W 1183   2.201   3.642   2.003
  187W        W 1184   1.229   1.111   5.164
  188W        W 1185   2.950   7.365   2.256
  189W        W 1186   1.495   6.815   1.374
  190W        W 1187   0.800   1.759   3.437
  191W        W 1188   3.677   4.566   4.058
  192W        W 1189   3.060   1.377   1.006
  193W        W 1190   1.439   3.755   2.342
  194W        W 1191   7.406   4.118   1.879
  195W        W 1192   2.654   3.201   0.720
  196W        W 1193   1.345   2.618   2.437
  197W        W 1194   0.190   2.337   5.226
  198W        W 1195   2.368   0.020   4.519
  199W        W 1196   2.731   6.631   0.322
  200W        W 1197   0.428   1.998   1.685
  201W        W 1198   5.736   6.311   2.823
  202W        W 1199   5.285   7.593   5.142
  203W        W 1200   5.973   2.274   4.878
  204W        W 1201   6.196   7.507   4.890
  205W        W 1202   3.485   4.051   4.160
  206W        W 1203   5.497   6.915   4.538
  207W        W 1204   2.980   2.287   7.647
  208W        W 1205   0.298   4.821   0.245
  209W        W 1206   3.681   2.474   1.733
  210W        W 1207   1.186   3.504   2.720
  211W        W 1208   7.495   0.885   7.167
  212W        W 1209   0.068   0.328   2.342
  213W        W 1210   5.498   6.883   4.043
  214W        W 1211   6.524   1.236   6.236
  215W        W 1212   5.849   0.071   4.560
  216W        W 1213   5.832   7.786   6.897
  217W        W 1214   2.499   6.618   5.107
  218W        W 1215   0.907   7.773   0.823
  219W        W 1216   0.171   7.871   4.160
  220W        W 1217   0.862   3.544   6.816
  221W        W 1218   3.565   0.598   0.972
  222W        W 1219   7.556   5.320   3.163
  223W        W 1220   3.559   1.697   5.985
  224W        W 1221   6.247   7.451   7.550
  225W        W 1222   1.325   5.009   3.067
  226W        W 1223   3.618   0.917   3.868
  227W        W 1224   1.347   4.575   1.821
  228W        W 1225   6.745   7.306   0.052
  229W        W 1226   1.682   5.368   1.491
  230W        W 1227   3.664   4.151   3.681
  231W        W 1228   2.867   2.023   2.130
  232W        W 1229   3.002   6.463   5.114
  233W        W 1230   6.988   1.672   0.535
  234W        W 1231   7.317   7.251   0.731
  235W        W 1232   5.791   3.202   6.485
  236W        W 1233   7.851   2.088   6.810
  237W        W 1234   1.278   4.324   5.223
  238W        W 1235   4.800   6.174   2.801
  239W        W 1236   0.995   2.283   0.036
  240W        W 1237   1.393   3.615   0.220
  241W        W 1238   2.434   5.388   4.233
  242W        W 1239   2.627   0.058   3.162
  243W        W 1240   6.572   3.457   4.822
  244W        W 1241   5.078   0.628   5.918
  245W        W 1242   1.958   2.741   4.232
  246W        W 1243   1.209   3.848   3.757
  247W        W 1244   6.559   4.297   3.034
  248W        W 1245   1.930   4.403   3.622
  249W        W 1246   1.653   2.963   7.762
  250W        W 1247   7.497   7.503   2.703
  251W        W 1248   0.845   0.004   1.893
  252W        W 1249   3.685   4.593   1.142
  253W        W 1250   2.903   4.153   4.253
  254W        W 1251   4.763   6.233   1.425
  255W        W 1252   1.429   1.504   5.383
  256W        W 1253   3.548   0.353   4.147
  257W        W 1254   2.900   7.568   1.425
  258W        W 1255   2.405   3.182   5.125
  259W        W 1256   1.022   4.864   2.682
  260W        W 1257   2.301   1.283   3.573
  261W        W 1258   5.328   7.070   1.319
  262W        W 1259   5.922   4.946   4.852
  263W        W 1260   5.649   3.354   2.642
  264W        W 1261   3.528   6.732   6.577
  265W        W 1262   5.659   4.976   2.782
  266W        W 1263   7.641   5.803   3.075
  267W        W 1264   5.943   4.663   6.881
  268W        W 1265   1.579   5.387   0.174
  269W        W 1266   0.395   0.226   3.592
  270W        W 1267   0.846   4.409   1.617
  271W        W 1268   7.103   5.197   3.607
  272W        W 1269   4.036   5.543   3.924
  273W        W 1270   0.108   5.363   5.096
  274W        W 1271   7.672   6.207   4.515
  275W        W 1272   4.218   6.098   3.471
  276W        W 1273   5.229   4.522   7.471
  277W        W 1274   1.375   3.430   1.164
  278W        W 1275   1.671   4.157   5.560
  279W        W 1276   7.044   7.394   2.370
  280W        W 1277   1.383   5.875   3.643
  281W        W 1278   5.422   3.768   7.884
  282W        W 1279   6.533   5.993   5.084
  283W        W 1280   3.025   4.593   7.244
  284W        W 1281   4.435   3.823   1.570
  285W        W 1282   5.675   6.250   7.689
  286W        W 1283   2.804   4.582   3.176
  287W        W 1284   4.244   0.539   5.236
  288W        W 1285   3.775   3.827   1.334
  289W        W 1286   2.563   2.588   2.961
  290W        W 1287   3.545   7.783   0.149
  291W        W 1288   5.677   6.043   5.750
  292W        W 1289   0.087   7.329   0.257
  293W        W 1290   1.748   1.354   0.943
  294W        W 1291   1.742   1.862   7.722
  295W        W 1292   6.784   5.617   3.362
  296W        W 1293   2.731   4.151   6.901
  297W        W 1294   0.792   5.281   1.646
  298W        W 1295   7.841   4.210   2.193
  299W        W 1296   2.805   1.992   3.466
  300W        W 1297   6.557   0.721   1.160
  301W        W 1298   0.535   4.424   3.478
  302W        W 1299   1.979   2.104   6.411
  303W        W 1300   3.150   3.798   1.634
  304W        W 1301   4.588   6.991   0.788
  305W        W 1302   6.939   4.095   0.989
  306W        W 1303   2.481   2.362   6.005
  307W        W 1304   6.224   0.691   6.822
  308W        W 1305   0.632   3.857   7.284
  309W        W 1306   1.758   0.699   6.406
  310W        W 1307   6.416   6.936   7.574
  311W        W 1308   7.141   6.937   4.678
  312W        W 1309   4.635   4.146   6.694
  313W        W 1310   2.712   4.367   2.746
  314W        W 1311   7.176   0.692   0.412
  315W        W 1312   1.617   1.242   2.597
  316W        W 1313   4.110   0.556   3.277
  317W        W 1314   7.241   7.263   5.065
  318W        W 1315   2.191   7.073   3.340
  319W        W 1316   6.899   1.528   7.660
  320W        W 1317   0.805   4.184   0.003
  321W        W 1318   5.704   5.121   3.873
  322W        W 1319   0.520   2.210   6.938
  323W        W 1320   7.000   5.390   5.643
  324W        W 1321   2.837   5.883   7.389
  325W        W 1322   7.173   3.649   0.718
  326W        W 1323   6.816   7.096   0.521
  327W        W 1324   4.889   1.207   6.940
  328W        W 1325   6.705   3.832   0.546
  329W        W 1326   1.004   5.143   2.218
  330W        W 1327   5.003   2.040   3.247
  331W        W 1328   3.324   5.958   2.361
  332W        W 1329   6.530   3.909   6.745
  333W        W 1330   2.133   6.592   5.974
  334W        W 1331   0.997   2.101   5.539
  335W        W 1332   1.283   4.261   2.374
  336W        W 1333   2.328   1.500   4.662
  337W        W 1334   6.342   1.268   6.690
  338W        W 1335   1.301   6.551   2.309
  339W        W 1336   0.777   1.492   0.827
  340W        W 1337   2.547   1.040   6.531
  341W        W 1338   7.406   4.704   5.392
  342W        W 1339   6.076   0.833   5.340
  343W        W 1340   2.768   3.633   7.114
  344W        W 1341   6.681   7.391   7.347
  345W        W 1342   5.999   6.606   7.491
  346W        W 1343   0.098   2.832   0.606
  347W        W 1344   2.497   5.124   1.054
  348W        W 1345   5.570   2.933   1.837
  349W        W 1346   5.911   3.237   3.193
  350W        W 1347   7.768   3.432   4.713
  351W        W 1348   4.575   2.868   4.304
  352W        W 1349   0.994   4.818   1.317
  353W        W 1350   4.481   7.411   7.134
  354W        W 1351   2.646   5.930   6.748
  355W        W 1352   6.496   1.454   1.899
  356W        W 1353   6.156   3.098   3.705
  357W        W 1354   4.818   5.202   6.966
  358W        W 1355   4.323   2.836   0.552
  359W        W 1356   4.573   1.429   2.257
  360W        W 1357   0.306   1.856   4.245
  361W        W 1358   7.326   2.967   4.964
  362W        W 1359   4.214   5.143   5.601
  363W        W 1360   5.152   1.309   0.457
  364W        W 1361   4.337   3.721   2.079
  365W        W 1362   6.462   2.244   2.499
  366W        W 1363   2.356   4.649   0.183
  367W        W 1364   2.193   3.020   0.659
  368W        W 1365   3.073   3.541   4.860
  369W        W 1366   7.972   4.131   5.298
  370W        W 1367   6.039   6.093   7.368
  371W        W 1368   5.332   1.206   5.178
  372W        W 1369   5.119   3.721   2.772
  373W        W 1370   7.500   3.732   7.005
  374W        W 1371   4.362   4.703   3.421
  375W        W 1372   4.862   0.087   1.302
  376W        W 1373   1.016   1.658   3.062
  377W        W 1374   6.397   4.930   5.059
  378W        W 1375   4.367   0.630   6.638
  379W        W 1376   0.573   6.303   0.535
  380W        W 1377   1.921   5.198   1.019
  381W        W 1378   2.253   4.285   2.069
  382W        W 1379   0.523   0.084   2.524
  383W        W 1380   7.573   0.969   0.532
  384W        W 1381   5.668   7.368   6.679
  385W        W 1382   0.892   2.859   2.310
  386W        W 1383   1.603   4.785   3.774
  387W        W 1384   7.206   6.744   0.661
  388W        W 1385   3.928   5.259   4.369
  389W        W 1386   6.934   1.523   1.598
  390W        W 1387   6.265   3.953   2.164
  391W        W 1388   3.423   1.148   3.498
  392W        W 1389   0.241   3.307   1.316
  393W        W 1390   0.183   1.030   1.247
  394W        W 1391   0.825   0.474   5.265
  395W        W 1392   5.192   6.883   7.365
  396W        W 1393   1.362   4.615   3.381
  397W        W 1394   0.058   2.030   4.773
  398W        W 1395   2.681   4.176   7.386
  399W        W 1396   0.707   7.542   3.167
  400W        W 1397   6.379   5.864   6.323
  401W        W 1398   1.168   3.771   4.365
  402W        W 1399   3.601   2.142   5.778
  403W        W 1400   0.563   6.180   0.034
  404W        W 1401   0.615   1.893   5.790
  405W        W 1402   3.021   6.917   3.273
  406W        W 1403   2.204   3.416   0.101
  407W        W 1404   7.823   1.835   5.082
  408W        W 1405   6.666   3.551   7.171
  409W        W 1406   4.694   0.868   1.349
  410W        W 1407   3.953   1.633   4.995
  411W        W 1408   6.228   2.115   7.354
  412W        W 1409   2.339   0.609   0.742
  413W        W 1410   3.541   1.808   0.365
  414W        W 1411   6.492   5.083   5.554
  415W        W 1412   0.928   1.731   3.962
  416W        W 1413   7.648   1.659   2.228
  417W        W 1414   2.513   1.885   7.289
  418W        W 1415   0.595   3.849   4.288
  419W        W 1416   6.042   1.134   3.217
  420W        W 1417   3.435   2.324   4.412
  421W        W 1418   4.477   3.244   7.145
  422W        W 1419   5.180   3.234   1.965
  423W        W 1420   0.566   6.664   5.754
  424W        W 1421   3.374   6.613   3.132
  425W        W 1422   7.344   7.811   6.781
  426W        W 1423   0.731   3.864   1.693
  427W        W 1424   7.213   1.344   6.940
  428W        W 1425   0.737   2.109   1.248
  429W        W 1426   6.718   4.841   6.852
  430W        W 1427   1.687   4.864   5.992
  431W        W 1428   5.991   0.370   6.393
  432W        W 1429   5.310   2.779   5.362
  433W        W 1430   2.167   5.026   7.731
  434W        W 1431   6.254   6.507   4.976
  435W        W 1432   0.761   1.889   0.418
  436W        W 1433   2.568   3.468   6.353
  437W        W 1434   7.669   4.637   0.673
  438W        W 1435   4.450   6.418   4.240
  439W        W 1436   4.368   6.712   2.046
  440W        W 1437   4.959   3.917   5.607
  441W        W 1438   0.909   0.784   7.552
  442W        W 1439   1.139   0.905   1.385
  443W        W 1440   3.135   4.586   7.784
  444W        W 1441   3.147   0.050   4.128
  445W        W 1442   1.467   5.549   4.738
  446W        W 1443   2.707   0.257   1.550
  447W        W 1444   5.050   7.122   0.900
  448W        W 1445   1.652   5.783   5.755
  449W        W 1446   3.212   4.240   6.956
  450W        W 1447   6.014   3.418   5.597
  451W        W 1448   5.090   3.496   3.901
  452W        W 1449   2.204   1.607   1.031
  453W        W 1450   5.933   7.313   7.178
  454W        W 1451   0.423   3.184   2.254
  455W        W 1452   7.671   3.454   3.286
  456W        W 1453   0.360   0.848   7.618
  457W        W 1454   3.274   1.647   2.093
  458W        W 1455   1.492   2.380   7.774
  459W        W 1456   5.842   1.869   0.596
  460W        W 1457   6.914   3.731   3.693
  461W        W 1458   6.665   6.398   5.403
  462W        W 1459   7.928   0.867   6.951
  463W        W 1460   4.297   1.466   3.131
  464W        W 1461   6.904   5.757   2.450
  465W        W 1462   0.487   6.888   0.434
  466W        W 1463   3.069   3.815   3.953
  467W        W 1464   2.757   4.564   4.506
  468W        W 1465   0.201   7.539   6.349
  469W        W 1466   1.409   7.471   2.213
  470W        W 1467   1.523   3.008   5.442
  471W        W 1468   4.673   2.041   7.892
  472W        W 1469   2.859   1.881   4.174
  473W        W 1470   0.198   1.316   1.688
  474W        W 1471   2.427   3.180   2.033
  475W        W 1472   6.265   7.347   0.304
  476W        W 1473   7.092   2.642   5.770
  477W        W 1474   2.531   3.557   4.853
  478W        W 1475   6.769   2.803   5.426
  479W        W 1476   1.299   3.182   0.545
  480W        W 1477   1.273   1.200   2.197
  481W        W 1478   7.431   1.580   4.839
  482W        W 1479   7.412   3.771   5.062
  483W        W 1480   0.548   4.539   4.546
  484W        W 1481   0.391   3.199   3.101
  485W        W 1482   4.249   7.158   6.207
  486W        W 1483   3.950   2.589   7.550
  487W        W 1484   4.685   3.375   1.712
  488W        W 1485   2.995   7.596   5.450
  489W        W 1486   4.314   4.547   4.889
  490W        W 1487   4.688   3.956   2.447
  491W        W 1488   6.934   7.511   5.920
  492W        W 1489   5.246   2.577   1.201
  493W        W 1490   2.135   5.526   1.287
  494W        W 1491   7.077   6.869   0.119
  495W        W 1492   6.566   3.867   3.310
  496W        W 1493   2.219   2.691   5.617
  497W        W 1494   1.810   1.959   3.307
  498W        W 1495   2.006   2.279   5.823
  499W        W 1496   5.703   3.147   5.174
  500W        W 1497   6.534   2.133   3.736
  501W        W 1498   2.697   7.460   4.056
  502W        W 1499   4.633   0.642   4.197
  503W        W 1500   3.496   3.235   4.749
  504W        W 1501   2.983   1.256   3.038
  505W        W 1502   5.067   6.904   3.109
  506W        W 1503   0.177   6.841   5.469
  507W        W 1504   5.120   6.472   2.237
  508W        W 1505   3.346   3.366   2.062
  509W        W 1506   1.813   1.775   4.665
  510W        W 1507   1.215   4.687   0.844
  511W        W 1508   7.582   0.005   3.042
  512W        W 1509   0.201   3.645   6.965
  513W        W 1510   7.277   4.794   2.733
  514W        W 1511   4.353   3.959   0.011
  515W        W 1512   1.262   3.033   5.054
  516W        W 1513   6.613   7.421   6.380
  517W        W 1514   7.222   7.579   7.508
  518W        W 1515   7.792   6.749   0.286
  519W        W 1516   7.772   0.232   5.642
  520W        W 1517   5.982   5.966   5.055
  521W        W 1518   0.497   0.157   4.251
  522W        W 1519   6.420   7.919   0.320
  523W        W 1520   5.940   6.054   0.239
  524W        W 1521   4.342   2.977   1.604
  525W        W 1522   2.628   3.594   2.729
  526W        W 1523   4.653   2.617   1.232
  527W        W 1524   7.318   0.141   6.262
  528W        W 1525   6.209   0.931   1.592
  529W        W 1526   0.322   3.167   4.880
  530W        W 1527   6.479   5.093   4.224
  531W        W 1528   5.660   4.132   7.602
  532W        W 1529   1.247   6.209   5.510
  533W        W 1530   4.773   7.483   0.258
  534W        W 1531   1.712   6.500   6.804
  535W        W 1532   7.238   4.283   6.320
  536W        W 1533   7.635   5.228   2.470
  537W        W 1534   0.324   3.610   2.813
  538W        W 1535   0.717   3.486   0.585
  539W        W 1536   6.343   2.126   3.278
  540W        W 1537   3.835   1.255   7.451
  541W        W 1538   3.187   0.885   5.582
  542W        W 1539   5.502   3.440   1.015
  543W        W 1540   0.033   4.036   6.689
  544W        W 1541   3.401   7.094   6.261
  545W        W 1542   6.441   5.309   7.423
  546W        W 1543   5.144   5.357   7.685
  547W        W 1544   7.520   2.191   7.253
  548W        W 1545   4.744   5.516   5.387
  549W        W 1546   0.035   2.034   2.958
  550W        W 1547   3.375   4.107   0.903
  551W        W 1548   3.017   5.364   3.640
  552W        W 1549   0.318   4.358   1.668
  553W        W 1550   0.425   4.345   5.912
  554W        W 1551   1.437   0.553   6.083
  555W        W 1552   2.542   1.777   2.588
  556W        W 1553   7.378   5.867   1.885
  557W        W 1554   5.808   0.551   0.559
  558W        W 1555   7.877   2.039   7.607
  559W        W 1556   5.204   3.543   1.426
  560W        W 1557   2.582   7.435   4.585
  561W        W 1558   1.677   2.861   5.916
  562W        W 1559   4.071   2.436   0.616
  563W        W 1560   5.158   5.228   6.585
  564W        W 1561   0.143   0.560   4.410
  565W        W 1562   4.606   5.967   5.119
  566W        W 1563   2.536   0.558   5.816
  567W        W 1564   7.413   4.681   5.948
  568W        W 1565   7.991   5.633   6.639
  569W        W 1566   3.832   7.376   0.280
  570W        W 1567   2.289   0.991   6.095
  571W        W 1568   2.160   2.927   2.892
  572W        W 1569   1.774   5.224   7.423
  573W        W 1570   4.399   0.978   5.528
  574W        W 1571   4.993   5.267   2.821
  575W        W 1572   5.627   3.686   6.405
  576W        W 1573   7.259   2.940   1.332
  577W        W 1574   3.396   7.434   1.537
  578W        W 1575   4.232   3.931   7.043
  579W        W 1576   1.236   7.565   4.667
  580W        W 1577   3.495   4.730   6.042
  581W        W 1578   5.740   1.246   1.262
  582W        W 1579   6.796   4.395   4.888
  583W        W 1580   5.221   1.061   6.166
  584W        W 1581   4.930   6.797   1.256
  585W        W 1582   2.289   3.106   4.016
  586W        W 1583   5.397   7.156   7.021
  587W        W 1584   1.348   2.195   4.747
  588W        W 1585   5.230   6.346   6.416
  589W        W 1586   7.176   0.904   7.736
  590W        W 1587   2.805   4.665   6.760
  591W        W 1588   6.100   1.214   7.252
  592W        W 1589   4.819   3.146   4.692
  593W        W 1590   5.101   1.691   1.163
  594W        W 1591   6.234   3.081   6.213
  595W        W 1592   2.383   7.524   6.951
  596W        W 1593   2.800   6.112   3.806
  597W        W 1594   3.158   2.409   3.475
  598W        W 1595   5.289   4.868   1.395
  599W        W 1596   0.424   7.201   6.711
  600W        W 1597   0.152   2.032   6.016
  601W        W 1598   7.587   4.028   2.743
  602W        W 1599   2.291   0.858   7.014
  603W        W 1600   5.202   0.039   1.816
  604W        W 1601   3.216   2.553   6.908
  605W        W 1602   4.125   0.137   4.980
  606W        W 1603   0.603   5.519   7.381
  607W        W 1604   6.426   3.661   7.654
  608W        W 1605   4.900   5.178   4.854
  609W        W 1606   1.500   7.354   5.865
  610W        W 1607   3.738   3.949   6.893
  611W        W 1608   1.396   5.128   1.171
  612W        W 1609   5.814   6.463   4.070
  613W        W 1610   1.918   1.408   3.199
  614W        W 1611   7.084   0.246   7.757
  615W        W 1612   7.535   3.451   6.572
  616W        W 1613   4.761   4.458   7.624
  617W        W 1614   5.476   5.506   3.062
  618W        W 1615   2.863   3.651   4.411
  619W        W 1616   3.124   4.803   5.673
  620W        W 1617   7.743   2.535   6.986
  621W        W 1618   3.772   5.184   5.908
  622W        W 1619   0.942   3.312   3.162
  623W        W 1620   0.700   2.625   7.709
  624W        W 1621   7.696   4.389   5.619
  625W        W 1622   3.732   1.920   4.338
  626W        W 1623   2.483   6.525   4.522
  627W        W 1624   6.666   1.431   7.086
  628W        W 1625   4.791   5.033   4.367
  629W        W 1626   7.727   7.693   5.756
  630W        W 1627   6.520   5.539   5.383
  631W        W 1628   3.053   0.148   6.574
  632W        W 1629   3.165   0.879   0.806
  633W        W 1630   2.648   2.429   4.900
  634W        W 1631   4.099   7.265   7.501
  635W        W 1632   7.142   7.191   3.641
  636W        W 1633   5.414   4.967   5.019
  637W        W 1634   5.643   4.973   1.712
  638W        W 1635   3.923   5.851   2.934
  639W        W 1636   1.047   0.730   0.842
  640W        W 1637   3.634   0.799   1.537
  641W        W 1638   3.739   6.172   4.685
  642W        W 1639   2.692   1.409   4.344
  643W        W 1640   7.646   0.601   5.030
  644W        W 1641   0.747   7.548   4.601
  645W        W 1642   7.994   6.359   3.127
  646W        W 1643   1.802   3.796   0.068
  647W        W 1644   4.654   7.471   0.948
  648W        W 1645   3.264   6.732   4.230
  649W        W 1646   5.444   5.721   6.519
  650W        W 1647   1.008   3.978   2.077
  651W        W 1648   0.677   1.078   1.695
  652W        W 1649   7.017   4.256   1.494
  653W        W 1650   6.891   6.336   5.858
  654W        W 1651   5.465   1.586   6.276
  655W        W 1652   1.614   5.297   3.790
  656W        W 1653   1.659   3.056   1.384
  657W        W 1654   1.408   3.908   7.214
  658W        W 1655   1.016   3.415   6.237
  659W        W 1656   5.187   5.137   2.376
  660W        W 1657   1.525   2.450   0.197
  661W        W 1658   7.895   6.664   1.385
  662W        W 1659   4.583   7.146   2.891
  663W        W 1660   1.597   5.021   4.554
  664W        W 1661   3.044   4.869   6.206
  665W        W 1662   7.135   0.546   6.432
  666W        W 1663   4.333   6.850   4.869
  667W        W 1664   2.900   5.411   5.076
  668W        W 1665   3.065   2.670   2.662
  669W        W 1666   3.117   0.315   2.395
  670W        W 1667   6.485   0.695   2.439
  671W        W 1668   2.286   5.863   6.341
  672W        W 1669   3.708   0.846   7.169
  673W        W 1670   5.315   1.012   2.156
  674W        W 1671   1.212   6.050   4.135
  675W        W 1672   4.418   4.685   2.333
  676W        W 1673   5.465   5.844   3.535
  677W        W 1674   3.570   2.692   4.939
  678W        W 1675   3.117   3.245   0.875
  679W        W 1676   3.302   5.552   5.361
  680W        W 1677   3.398   6.302   2.719
  681W        W 1678   7.441   2.521   4.771
  682W        W 1679   5.560   3.464   4.792
  683W        W 1680   3.114   6.425   0.093
  684W        W 1681   4.183   0.432   5.722
  685W        W 1682   3.636   4.251   6.241
  686W        W 1683   4.758   3.178   2.262
  687W        W 1684   1.587   1.163   3.531
  688W        W 1685   0.063   3.334   1.877
  689W        W 1686   6.124   5.431   3.999
  690W        W 1687   2.929   3.730   6.663
  691W        W 1688   6.545   0.630   1.750
  692W        W 1689   4.720   2.586   0.151
  693W        W 1690   3.666   1.042   2.376
  694W        W 1691   5.543   6.725   3.066
  695W        W 1692   4.428   4.893   7.861
  696W        W 1693   1.349   4.504   5.750
  697W        W 1694   7.084   3.028   2.700
  698W        W 1695   5.021   6.502   4.099
  699W        W 1696   5.809   4.553   3.736
  700W        W 1697   7.863   0.510   3.663
  701W        W 1698   0.355   1.834   0.726
  702W        W 1699   3.006   4.287   2.349
  703W        W 1700   7.125   2.817   3.551
  704W        W 1701   6.192   5.055   6.704
  705W        W 1702   5.053   5.760   2.776
  706W        W 1703   4.905   1.783   2.274
  707W        W 1704   2.920   7.448   6.800
  708W        W 1705   0.547   1.496   2.918
  709W        W 1706   6.209   6.210   5.412
  710W        W 1707   0.915   3.151   0.918
  711W        W 1708   3.496   1.107   2.959
  712W        W 1709   1.212   3.620   1.771
  713W        W 1710   0.202   1.289   7.218
  714W        W 1711   6.261   0.329   0.226
  715W        W 1712   5.221   7.081   1.783
  716W        W 1713   4.346   7.524   2.685
  717W        W 1714   2.680   2.372   6.812
  718W        W 1715   5.840   5.692   4.668
  719W        W 1716   2.766   1.303   5.679
  720W        W 1717   6.359   6.594   1.848
  721W        W 1718   5.430   2.222   2.987
  722W        W 1719   4.265   1.979   4.152
  723W        W 1720   0.352   0.725   0.326
  724W        W 1721   5.441   5.763   1.841
  725W        W 1722   0.531   2.365   5.632
  726W        W 1723   2.954   1.700   1.674
  727W        W 1724   0.649   2.401   2.353
  728W        W 1725   5.750   2.488   7.144
  729W        W 1726   1.721   3.936   3.585
  730W        W 1727   3.599   7.066   1.749
  731W        W 1728   6.342   3.027   5.733
  732W        W 1729   4.090   4.384   7.175
  733W        W 1730   2.264   5.237   2.081
  734W        W 1731   5.913   7.713   4.093
  735W        W 1732   3.245   6.402   1.144
  736W        W 1733   3.932   3.889   7.439
  737W        W 1734   5.110   0.302   7.294
  738W        W 1735   2.502   6.522   3.966
  739W        W 1736   4.040   7.897   1.758
  740W        W 1737   5.233   2.606   3.191
  741W        W 1738   5.567   7.716   0.647
  742W        W 1739   4.869   1.991   7.449
  743W        W 1740   3.390   3.753   2.940
  744W        W 1741   0.812   1.401   2.087
  745W        W 1742   3.202   6.231   7.403
  746W        W 1743   1.421   1.412   3.028
  747W        W 1744   7.420   1.326   1.427
  748W        W 1745   2.250   3.925   2.825
  749W        W 1746   7.651   2.160   5.691
  750W        W 1747   7.147   2.379   4.286
  751W        W 1748   3.022   1.017   1.382
  752W        W 1749   6.438   3.904   5.094
  753W        W 1750   2.562   1.742   0.562
  754W        W 1751   7.000   6.917   1.133
  755W        W 1752   3.171   7.858   5.933
  756W        W 1753   5.918   1.346   4.481
  757W        W 1754   7.354   5.835   6.709
  758W        W 1755   1.022   7.298   5.068
  759W        W 1756   1.637   3.652   1.536
  760W        W 1757   4.700   5.783   3.570
  761W        W 1758   4.056   4.719   5.852
  762W        W 1759   3.569   7.764   1.852
  763W        W 1760   1.888   2.036   1.124
  764W        W 1761   3.141   5.918   4.320
  765W        W 1762   1.164   5.531   1.461
  766W        W 1763   1.054   6.590   4.219
  767W        W 1764   5.900   4.482   7.822
  768W        W 1765   3.922   4.919   2.477
  769W        W 1766   3.203   4.382   3.852
  770W        W 1767   3.175   1.203   2.536
  771W        W 1768   4.765   0.817   1.985
  772W        W 1769   0.138   4.991   3.804
  773W        W 1770   4.582   7.078   7.520
  774W        W 1771   5.599   1.795   1.442
  775W        W 1772   6.324   7.800   5.275
  776W        W 1773   3.814   6.348   3.067
  777W        W 1774   0.638   6.022   7.278
  778W        W 1775   3.896   0.582   2.569
  779W        W 1776   5.724   3.797   7.221
  780W        W 1777   1.694   6.996   6.608
  781W        W 1778   6.550   6.219   6.919
  782W        W 1779   4.141   2.484   1.491
  783W        W 1780   4.366   4.879   1.892
  784W        W 1781   3.890   4.464   5.227
  785W        W 1782   4.322   4.220   2.198
  786W        W 1783   7.712   6.556   5.491
  787W        W 1784   6.681   0.257   1.311
  788W        W 1785   6.360   0.096   6.675
  789W        W 1786   3.641   2.035   4.803
  790W        W 1787   5.137   0.074   6.827
  791W        W 1788   7.127   1.857   4.383
  792W        W 1789   1.201   2.145   0.449
  793W        W 1790   5.710   6.609   4.849
  794W        W 1791   3.286   6.929   2.196
  795W        W 1792   6.538   2.591   5.035
  796W        W 1793   6.291   2.003   5.622
  797W        W 1794   6.843   6.613   4.968
  798W        W 1795   1.628   5.686   7.034
  799W        W 1796   0.372   5.154   0.568
  800W        W 1797   3.695   6.274   7.428
  801W        W 1798   1.536   1.917   5.082
  802W        W 1799   7.188   6.624   5.549
  803W        W 1800   3.745   5.473   2.203
  804W        W 1801   2.387   1.610   3.010
  805W        W 1802   2.750   7.132   5.512
  806W        W 1803   1.472   4.161   3.223
  807W        W 1804   3.574   6.717   1.410
  808W        W 1805   5.807   3.849   2.025
  809W        W 1806   2.298   5.809   2.189
  810W        W 1807   1.396   7.287   3.533
  811W        W 1808   1.489   6.440   3.203
  812W        W 1809   5.793   4.260   3.313
  813W        W 1810   3.303   7.064   4.739
  814W        W 1811   7.298   7.951   2.552
  815W        W 1812   7.551   2.447   6.509
  816W        W 1813   4.137   1.128   2.129
  817W        W 1814   3.710   2.616   7.064
  818W        W 1815   2.771   3.120   1.212
  819W        W 1816   7.193   3.845   6.617
  820W        W 1817   3.496   1.347   0.700
  821W        W 1818   4.900   1.727   0.701
  822W        W 1819   4.010   1.473   0.865
  823W        W 1820   3.907   1.399   6.185
  824W        W 1821   6.760   3.430   2.768
  825W        W 1822   2.220   5.611   5.922
  826W        W 1823   5.565   4.482   1.544
  827W        W 1824   5.654   3.685   5.857
  828W        W 1825   0.603   3.088   3.538
  829W        W 1826   2.782   0.548   7.621
  830W        W 1827   0.824   2.973   4.029
  831W        W 1828   4.797   7.291   3.383
  832W        W 1829   2.473   6.320   6.284
  833W        W 1830   2.664   7.910   6.859
  834W        W 1831   7.209   0.112   5.633
  835W        W 1832   5.711   6.140   6.348
  836W        W 1833   6.674   2.198   4.234
  837W        W 1834   1.766   4.509   2.203
  838W        W 1835   1.742   2.104   3.805
  839W        W 1836   3.532   5.255   7.353
  840W        W 1837   6.226   3.159   6.787
  841W        W 1838   1.311   2.704   1.901
  842W        W 1839   5.397   2.054   0.944
  843W        W 1840   3.694   0.903   0.452
  844W        W 1841   0.295   2.665   3.303
  845W        W 1842   5.081   3.448   5.746
  846W        W 1843   7.060   2.886   2.249
  847W        W 1844   7.262   3.375   4.721
  848W        W 1845   4.021   3.014   6.903
  849W        W 1846   1.218   0.494   3.184
  850W        W 1847   0.889   0.470   6.247
  851W        W 1848   1.938   1.209   7.165
  852W        W 1849   3.078   3.706   0.687
  853W        W 1850   5.653   2.313   7.951
  854W        W 1851   0.735   2.826   3.144
  855W        W 1852   1.304   4.926   7.471
  856W        W 1853   6.728   3.740   2.280
  857W        W 1854   5.114   4.551   0.243
  858W        W 1855   7.038   6.970   1.620
  859W        W 1856   3.822   4.518   1.635
  860W        W 1857   4.001   1.172   5.234
  861W        W 1858   0.496   5.291   6.603
  862W        W 1859   3.944   7.955   0.814
  863W        W 1860   0.546   3.519   6.411
  864W        W 1861   2.529   7.416   0.197
  865W        W 1862   0.703   1.015   5.857
  866W        W 1863   7.105   6.582   2.538
  867W        W 1864   3.681   1.747   6.533
  868W        W 1865   0.915   3.159   7.669
  869W        W 1866   1.332   0.205   1.773
  870W        W 1867   4.667   0.544   5.546
  871W        W 1868   5.235   5.420   5.229
  872W        W 1869   3.351   4.753   2.063
  873W        W 1870   5.804   2.667   1.240
  874W        W 1871   5.441   2.297   0.320
  875W        W 1872   0.001   1.151   2.642
  876W        W 1873   6.472   4.314   2.496
  877W        W 1874   3.087   7.268   4.331
  878W        W 1875   2.723   7.498   7.370
  879W        W 1876   1.157   0.291   0.019
  880W        W 1877   2.906   7.091   6.429
  881W        W 1878   3.296   3.517   5.610
  882W        W 1879   4.511   5.557   4.874
  883W        W 1880   3.140   5.477   4.628
  884W        W 1881   6.893   6.693   6.422
  885W        W 1882   4.391   2.575   3.360
  886W        W 1883   2.906   6.379   4.289
  887W        W 1884   2.871   6.934   7.424
  888W        W 1885   0.478   0.095   5.483
  889W        W 1886   3.712   2.699   1.305
  890W        W 1887   1.796   1.134   5.320
  891W        W 1888   4.092   2.239   3.547
  892W        W 1889   1.500   0.397   0.922
  893W        W 1890   6.536   7.195   0.908
  894W        W 1891   5.036   3.241   1.043
  895W        W 1892   6.763   3.246   7.585
  896W        W 1893   7.846   6.979   6.494
  897W        W 1894   4.943   4.920   7.811
  898W        W 1895   4.566   3.157   5.852
  899W        W 1896   2.943   6.998   3.799
  900W        W 1897   6.608   1.653   0.232
  901W        W 1898   1.326   5.599   6.604
  902W        W 1899   0.515   7.604   2.725
  903W        W 1900   2.104   3.453   2.841
  904W        W 1901   6.428   6.822   5.303
  905W        W 1902   5.360   4.774   6.942
  906W        W 1903   3.958   6.118   6.932
  907W        W 1904   4.563   5.871   1.652
  908W        W 1905   0.128   4.512   3.746
  909W        W 1906   6.709   2.108   2.927
  910W        W 1907   1.515   2.327   6.240
  911W        W 1908   4.465   5.572   7.382
  912W        W 1909   6.941   6.530   3.030
  913W        W 1910   5.805   4.177   6.037
  914W        W 1911   7.004   1.155   1.234
  915W        W 1912   0.388   3.811   5.758
  916W        W 1913   4.005   3.468   7.190
  917W        W 1914   6.670   0.107   7.514
  918W        W 1915   5.202   7.213   4.833
  919W        W 1916   0.297   4.506   5.010
  920W        W 1917   0.271   4.677   5.534
  921W        W 1918   4.296   4.753   2.859
  922W        W 1919   2.726   5.544   0.325
  923W        W 1920   3.337   2.878   3.083
  924W        W 1921   3.582   0.331   2.203
  925W        W 1922   6.898   1.536   4.724
  926W        W 1923   2.483   1.644   3.901
  927W        W 1924   5.851   5.987   3.251
  928W        W 1925   4.864   5.840   1.046
  929W        W 1926   6.844   3.175   3.995
  930W        W 1927   0.518   3.301   1.767
  931W        W 1928   5.552   1.919   4.293
  932W        W 1929   6.644   6.410   3.846
  933W        W 1930   7.590   5.210   7.218
  934W        W 1931   3.918   3.500   2.945
  935W        W 1932   6.334   2.871   1.214
  936W        W 1933   7.759   4.400   7.436
  937W        W 1934   1.164   0.380   1.302
  938W        W 1935   7.745   7.456   3.841
  939W        W 1936   1.428   5.400   5.470
  940W        W 1937   7.012   3.763   1.423
  941W        W 1938   2.839   4.805   5.160
  942W        W 1939   6.972   6.161   3.542
  943W        W 1940   0.454   3.077   0.898
  944W        W 1941   1.276   5.980   1.156
  945W        W 1942   3.757   0.708   5.103
  946W        W 1943   4.030   5.915   7.447
  947W        W 1944   5.179   7.568   1.086
  948W        W 1945   3.198   1.616   3.374
  949W        W 1946   7.319   5.022   0.938
  950W        W 1947   6.514   6.061   2.216
  951W        W 1948   3.070   4.476   4.871
  952W        W 1949   0.221   2.667   1.105
  953W        W 1950   5.527   2.920   0.879
  954W        W 1951   0.082   5.279   5.631
  955W        W 1952   6.018   0.832   1.040
  956W        W 1953   3.547   2.545   2.758
  957W        W 1954   2.600   5.145   3.858
  958W        W 1955   5.689   2.920   2.350
  959W        W 1956   6.357   6.420   4.224
  960W        W 1957   2.973   3.959   2.779
  961W        W 1958   5.555   0.154   7.125
  962W        W 1959   4.456   7.403   5.796
  963W        W 1960   3.083   2.675   4.172
  964W        W 1961   4.675   2.752   1.870
  965W        W 1962   4.158   4.184   3.586
  966W        W 1963   2.269   6.175   1.319
  967W        W 1964   0.625   5.859   1.817
  968W        W 1965   4.490   2.764   5.433
  969W        W 1966   1.819   5.613   0.564
  970W        W 1967   2.220   4.757   6.135
  971W        W 1968   6.730   3.597   1.028
  972W        W 1969   7.406   6.131   6.248
  973W        W 1970   7.332   7.423   1.373
  974W        W 1971   4.591   4.252   3.345
  975W        W 1972   4.236   3.011   7.500
  976W        W 1973   1.180   6.272   4.569
  977W        W 1974   6.335   6.960   4.023
  978W        W 1975   3.501   0.218   0.224
  979W        W 1976   3.316   5.053   5.264
  980W        W 1977   7.415   4.354   2.392
  981W        W 1978   2.056   1.011   2.319
  982W        W 1979   3.062   5.826   2.898
  983W        W 1980   6.567   3.433   6.491
  984W        W 1981   4.902   7.280   1.376
  985W        W 1982   1.908   5.662   4.953
  986W        W 1983   4.602   6.999   0.081
  987W        W 1984   4.303   6.390   2.982
  988W        W 1985   5.422   4.965   0.270
  989W        W 1986   6.280   6.292   7.885
  990W        W 1987   6.389   7.684   2.789
  991W        W 1988   0.843   4.714   3.298
  992W        W 1989   1.900   0.251   4.031
  993W        W 1990   5.108   6.126   4.576
  994W        W 1991   5.227   4.048   0.225
  995W        W 1992   5.713   1.745   1.961
  996W        W 1993   2.799   3.654   3.432
  997W        W 1994   3.530   7.966   7.123
  998W        W 1995   5.449   3.091   3.041
  999W        W 1996   6.268   4.709   2.901
 1000W        W 1997   5.641   5.643   3.982
 1001W        W 1998   4.843   4.339   0.739
 1002W        W 1999   6.335   5.614   1.370
 1003W        W 2000   0.354   7.844   6.757
 1004W        W 2001   7.146   0.763   5.058
 1005W        W 2002   7.476   2.066   4.116
 1006W        W 2003   3.928   6.100   6.005
 1007W        W 2004   2.580   4.977   6.336
 1008W        W 2005   1.569   5.996   5.173
 1009W        W 2006   4.949   4.583   3.597
 1010W        W 2007   3.142   6.756   5.561
 1011W        W 2008   1.664   3.058   4.620
 1012W        W 2009   2.044   4.616   6.907
 1013W        W 2010   4.830   4.724   1.087
 1014W        W 2011   3.505   2.500   0.225
 1015W        W 2012   5.833   5.746   1.482
 1016W        W 2013   5.518   2.090   3.465
 1017W        W 2014   6.436   0.366   3.845
 1018W        W 2015   6.981   4.385   5.350
 1019W        W 2016   1.697   7.012   2.333
 1020W        W 2017   2.470   5.045   6.798
 1021W        W 2018   2.699   4.150   4.825
 1022W        W 2019   0.296   1.363   4.181
 1023W        W 2020   0.897   3.350   1.464
 1024W        W 2021   3.471   5.128   2.408
 1025W        W 2022   1.622   3.374   2.600
 1026W        W 2023   4.354   7.543   3.313
 1027W        W 2024   7.034   5.787   3.834
 1028W        W 2025   3.507   3.142   5.294
 1029W        W 2026   5.145   6.054   6.881
 1030W        W 2027   5.241   3.473   4.395
 1031W        W 2028   4.364   0.457   7.512
 1032W        W 2029   0.452   4.205   7.641
 1033W        W 2030   5.168   0.548   2.339
 1034W        W 2031   1.032   4.046   6.922
 1035W        W 2032   2.368   6.709   7.733
 1036W        W 2033   5.465   5.845   0.242
 1037W        W 2034   3.341   5.214   1.690
 1038W        W 2035   4.562   1.263   0.791
 1039W        W 2036   1.465   6.290   7.881
 1040W        W 2037   2.826   6.337   7.059
 1041W        W 2038   4.891   6.400   5.183
 1042W        W 2039   0.909   2.548   5.958
 1043W        W 2040   2.804   7.722   6.385
 1044W        W 2041   1.403   1.589   1.921
 1045W        W 2042   1.342   1.666   2.598
 1046W        W 2043   2.191   2.901   7.545
 1047W        W 2044   6.060   1.427   2.206
 1048W        W 2045   5.338   1.827   0.456
 1049W        W 2046   2.874   4.892   1.459
 1050W        W 2047   6.239   7.300   5.351
 1051W        W 2048   4.969   4.629   2.548
 1052W        W 2049   0.777   3.832   3.508
 1053W        W 2050   5.149   6.670   6.909
 1054W        W 2051   6.085   1.512   6.300
 1055W        W 2052   7.465   2.577   3.265
 1056W        W 2053   6.087   1.336   3.709
 1057W        W 2054   1.638   2.544   6.727
 1058W        W 2055   0.385   4.034   4.797
 1059W        W 2056   6.067   3.769   3.175
 1060W        W 2057   0.482   1.379   5.674
 1061W        W 2058   0.242   4.853   3.310
 1062W        W 2059   3.665   3.092   5.783
 1063W        W 2060   5.309   6.489   1.442
 1064W        W 2061   3.938   1.744   6.996
 1065W        W 2062   0.524   3.550   3.870
 1066W        W 2063   0.786   3.743   2.892
 1067W        W 2064   1.681   4.256   4.748
 1068W        W 2065   0.938   1.418   6.009
 1069W        W 2066   5.440   4.797   3.544
 1070W        W 2067   4.939   7.991   5.248
 1071W        W 2068   1.130   4.601   0.022
 1072W        W 2069   4.667   0.450   5.005
 1073W        W 2070   0.559   1.736   5.308
 1074W        W 2071   1.912   7.623   0.138
 1075W        W 2072   5.143   1.691   1.760
 1076W        W 2073   6.608   3.807   1.743
 1077W        W 2074   3.360   2.001   4.042
 1078W        W 2075   1.248   6.889   3.215
 1079W        W 2076   0.386   0.180   0.625
 1080W        W 2077   4.866   2.164   0.978
 1081W        W 2078   7.818   0.030   0.051
 1082W        W 2079   1.154   2.878   1.361
 1083W        W 2080   1.303   5.078   1.776
 1084W        W 2081   0.217   5.175   1.127
 1085W        W 2082   2.460   5.193   5.213
 1086W        W 2083   3.241   7.779   2.356
 1087W        W 2084   6.462   0.782   4.379
 1088W        W 2085   5.998   1.762   4.130
 1089W        W 2086   1.353   3.223   6.577
 1090W        W 2087   2.632   3.609   0.299
 1091W        W 2088   6.247   1.885   2.814
 1092W        W 2089   0.016   0.103   4.674
 1093W        W 2090   0.791   3.735   5.499
 1094W        W 2091   1.278   1.701   4.585
 1095W        W 2092   6.061   1.630   1.049
 1096W        W 2093   4.359   1.204   1.277
 1097W        W 2094   7.505   0.577   6.032
 1098W        W 2095   2.201   1.277   5.682
 1099W        W 2096   4.863   6.071   2.328
 1100W        W 2097   0.007   7.473   7.485
 1101W        W 2098   0.304   6.595   0.094
 1102W        W 2099   6.980   3.724   5.751
 1103W        W 2100   0.667   1.209   3.347
 1104W        W 2101   6.712   4.690   7.639
 1105W        W 2102   1.447   1.939   2.961
 1106W        W 2103   3.084   1.142   1.986
 1107W        W 2104   5.634   6.317   5.254
 1108W        W 2105   0.985   5.964   3.333
 1109W        W 2106   6.265   4.431   5.015
 1110W        W 2107   6.228   7.698   3.540
 1111W        W 2108   3.817   0.298   5.391
 1112W        W 2109   2.476   0.913   7.524
 1113W        W 2110   6.121   3.427   7.186
 1114W        W 2111   4.966   3.303   3.037
 1115W        W 2112   7.453   2.320   5.309
 1116W        W 2113   7.640   7.552   7.172
 1117W        W 2114   0.618   6.358   1.648
 1118W        W 2115   5.950   2.835   4.406
 1119W        W 2116   3.496   0.941   7.629
 1120W        W 2117   3.541   0.154   2.723
 1121W        W 2118   3.276   2.798   1.962
 1122W        W 2119   6.605   4.633   3.981
 1123W        W 2120   3.938   4.747   0.571
 1124W        W 2121   3.676   6.414   3.541
 1125W        W 2122   0.629   1.559   1.554
 1126W        W 2123   6.580   2.519   7.484
 1127W        W 2124   3.073   6.453   2.278
 1128W        W 2125   1.672   7.002   0.107
 1129W        W 2126   4.136   5.789   0.177
 1130W        W 2127   6.582   2.142   0.206
 1131W        W 2128   3.323   6.757   7.436
 1132W        W 2129   7.066   7.436   4.566
 1133W        W 2130   7.386   2.328   6.003
 1134W        W 2131   4.897   3.388   6.199
 1135W        W 2132   3.152   1.405   6.034
 1136W        W 2133   4.086   7.244   4.600
 1137W        W 2134   4.753   6.501   4.682
 1138W        W 2135   7.787   1.222   1.973
 1139W        W 2136   6.495   5.484   0.012
 1140W        W 2137   0.973   2.798   0.005
 1141W        W 2138   0.311   2.970   6.510
 1142W        W 2139   4.207   2.560   7.067
 1143W        W 2140   3.163   6.994   1.347
 1144W        W 2141   3.157   2.765   4.711
 1145W        W 2142   7.860   4.910   5.399
 1146W        W 2143   7.415   4.168   0.704
 1147W        W 2144   6.256   1.267   4.194
 1148W        W 2145   3.739   5.514   1.710
 1149W        W 2146   3.727   2.511   2.244
 1150W        W 2147   2.640   2.948   4.716
 1151W        W 2148   3.330   4.647   6.497
 1152W        W 2149   2.232   2.089   3.938
 1153W        W 2150   5.287   2.289   7.423
 1154W        W 2151   5.105   5.474   6.177
 1155W        W 2152   7.078   6.166   5.351
 1156W        W 2153   6.122   1.669   0.272
 1157W        W 2154   0.562   6.696   4.224
 1158W        W 2155   7.264   2.924   4.477
 1159W        W 2156   4.618   4.853   5.774
 1160W        W 2157   1.736   7.025   0.934
 1161W        W 2158   4.487   5.108   6.605
 1162W        W 2159   3.494   1.117   5.266
 1163W        W 2160   6.668   2.283   5.422
 1164W        W 2161   7.317   2.931   5.472
 1165W        W 2162   3.832   3.164   3.826
 1166W        W 2163   1.718   5.164   5.019
 1167W        W 2164   4.167   7.871   5.845
 1168W        W 2165   0.744   0.647   3.507
 1169W        W 2166   1.061   2.166   6.440
 1170W        W 2167   3.500   4.993   3.530
 1171W        W 2168   1.456   6.088   6.783
 1172W        W 2169   0.721   5.777   4.064
 1173W        W 2170   2.224   4.029   1.619
 1174W        W 2171   6.049   4.942   5.816
 1175W        W 2172   4.486   1.512   3.592
 1176W        W 2173   6.821   2.684   4.519
 1177W        W 2174   7.591   1.988   3.057
 1178W        W 2175   0.176   4.104   4.233
 1179W        W 2176   4.662   3.662   5.389
 1180W        W 2177   3.102   2.998   5.602
 1181W        W 2178   2.564   0.491   4.434
 1182W        W 2179   2.932   6.778   4.683
 1183W        W 2180   0.834   4.074   5.082
 1184W        W 2181   0.487   1.568   6.136
 1185W        W 2182   1.649   2.257   0.717
 1186W        W 2183   3.816   3.033   2.810
 1187W        W 2184   7.100   3.206   5.790
 1188W        W 2185   7.677   5.164   1.867
 1189W        W 2186   0.980   6.467   3.292
 1190W        W 2187   6.041   4.914   7.650
 1191W        W 2188   1.498   1.382   4.905
 1192W        W 2189   4.399   2.224   1.137
 1193W        W 2190   1.079   0.800   4.328
 1194W        W 2191   3.953   0.469   0.623
 1195W        W 2192   7.739   5.277   1.321
 1196W        W 2193   5.560   2.026   4.787
 1197W        W 2194   5.736   6.995   6.161
 1198W        W 2195   0.921   6.228   2.177
 1199W        W 2196   1.817   7.156   7.400
 1200W        W 2197   6.086   5.191   1.483
 1201W        W 2198   6.891   5.013   7.314
 1202W        W 2199   4.201   3.828   2.580
 1203W        W 2200   6.918   4.515   6.020
 1204W        W 2201   6.321   3.066   5.216
 1205W        W 2202   7.212   6.156   2.290
 1206W        W 2203   4.420   4.149   5.220
 1207W        W 2204   6.741   2.980   6.628
 1208W        W 2205   2.993   6.432   0.665
 1209W        W 2206   5.777   5.716   7.713
 1210W        W 2207   1.153   2.669   0.473
 1211W        W 2208   6.464   2.630   6.372
 1212W        W 2209   1.910   7.212   0.497
 1213W        W 2210   2.532   6.671   0.820
 1214W        W 2211   4.139   7.036   1.675
 1215W        W 2212   3.777   5.041   3.983
 1216W        W 2213   6.230   5.550   1.949
 1217W        W 2214   1.666   2.182   2.557
 1218W        W 2215   2.492   6.273   2.169
 1219W        W 2216   3.737   2.660   6.034
 1220W        W 2217   6.420   2.814   4.139
 1221W        W 2218   2.111   3.553   1.486
 1222W        W 2219   0.056   0.427   2.832
 1223W        W 2220   1.117   7.647   6.069
 1224W        W 2221   6.219   5.873   6.812
 1225W        W 2222   2.025   3.961   7.673
 1226W        W 2223   5.243   3.528   3.408
 1227W        W 2224   3.781   0.367   1.725
 1228W        W 2225   4.343   4.692   5.384
 1229W        W 2226   7.508   0.166   2.258
 1230W        W 2227   5.340   6.059   2.541
 1231W        W 2228   4.344   3.901   3.061
 1232W        W 2229   1.347   6.122   2.686
 1233W        W 2230   6.884   0.578   7.417
 1234W        W 2231   2.943   0.783   2.344
 1235W        W 2232   4.079   6.023   4.351
 1236W        W 2233   3.688   2.512   3.309
 1237W        W 2234   0.232   6.549   0.771
 1238W        W 2235   0.591   5.175   3.517
 1239W        W 2236   5.587   2.360   1.548
 1240W        W 2237   3.663   0.579   3.519
 1241W        W 2238   3.412   2.518   6.484
 1242W        W 2239   6.351   1.034   2.079
 1243W        W 2240   0.347   5.778   5.098
 1244W        W 2241   4.602   2.448   0.681
 1245W        W 2242   0.176   3.893   3.716
 1246W        W 2243   2.342   0.988   4.635
 1247W        W 2244   6.373   3.359   3.339
 1248W        W 2245   4.649   1.885   4.478
 1249W        W 2246   6.861   1.993   2.479
 1250W        W 2247   6.455   5.133   2.675
 1251W        W 2248   5.481   0.448   7.577
 1252W        W 2249   0.850   0.708   2.890
 1253W        W 2250   0.172   5.419   6.260
 1254W        W 2251   1.607   3.627   7.575
 1255W        W 2252   4.993   6.619   1.777
 1256W        W 2253   0.447   3.259   0.140
 1257W        W 2254   6.302   6.449   0.468
 1258W        W 2255   2.023   4.775   4.566
 1259W        W 2256   3.927   1.219   1.525
 1260W        W 2257   5.914   2.344   3.234
 1261W        W 2258   1.936   7.458   1.801
 1262W        W 2259   2.191   5.884   0.891
 1263W        W 2260   0.403   0.677   2.529
 1264W        W 2261   3.607   4.399   5.713
 1265W        W 2262   3.650   1.181   5.817
 1266W        W 2263   6.839   0.103   0.252
 1267W        W 2264   3.229   2.330   2.286
 1268W        W 2265   0.355   6.905   2.535
 1269W        W 2266   6.057   2.553   2.331
 1270W        W 2267   6.922   4.117   1.982
 1271W        W 2268   1.998   4.181   3.126
 1272W        W 2269   6.060   5.321   2.393
 1273W        W 2270   3.362   7.821   7.687
 1274W        W 2271   3.696   3.430   6.748
 1275W        W 2272   3.315   4.899   2.817
 1276W        W 2273   5.217   4.981   5.881
 1277W        W 2274   0.594   0.090   6.022
 1278W        W 2275   3.032   1.755   2.519
 1279W        W 2276   4.184   5.626   5.296
 1280W        W 2277   2.294   6.490   1.731
 1281W        W 2278   5.754   4.647   7.351
 1282W        W 2279   4.997   6.915   4.465
 1283W        W 2280   3.596   2.501   0.732
 1284W        W 2281   0.936   4.322   6.089
 1285W        W 2282   0.833   7.622   6.778
 1286W        W 2283   4.062   5.318   4.870
 1287W        W 2284   2.040   0.260   5.024
 1288W        W 2285   3.889   6.723   7.542
 1289W        W 2286   1.014   0.208   4.188
 1290W        W 2287   5.894   7.172   3.957
 1291W        W 2288   1.124   3.015   2.735
 1292W        W 2289   0.300   4.453   6.463
 1293W        W 2290   3.539   4.136   4.956
 1294W        W 2291   1.384   3.156   1.782
 1295W        W 2292   3.578   1.992   7.916
 1296W        W 2293   0.285   5.537   3.614
 1297W        W 2294   0.325   0.641   1.620
 1298W        W 2295   1.853   7.749   2.223
 1299W        W 2296   1.550   0.760   5.615
 1300W        W 2297   0.517   7.623   7.632
 1301W        W 2298   3.356   7.307   0.143
 1302W        W 2299   5.951   7.552   2.617
 1303W        W 2300   0.764   5.254   4.025
 1304W        W 2301   7.025   4.993   6.147
 1305W        W 2302   2.686   1.844   5.857
 1306W        W 2303   1.355   0.207   2.311
 1307W        W 2304   4.635   5.394   4.002
 1308W        W 2305   6.591   2.008   1.994
 1309W        W 2306   2.815   2.610   7.300
 1310W        W 2307   6.963   0.777   3.486
 1311W        W 2308   6.482   3.851   2.716
 1312W        W 2309   5.027   1.383   6.502
 1313W        W 2310   3.985   7.425   0.898
 1314W        W 2311   5.171   7.381   2.880
 1315W        W 2312   0.061   1.487   5.192
 1316W        W 2313   4.114   0.242   2.343
 1317W        W 2314   4.686   0.030   7.445
 1318W        W 2315   2.811   2.637   5.717
 1319W        W 2316   5.301   0.539   0.683
 1320W        W 2317   3.173   1.837   7.517
 1321W        W 2318   0.429   5.027   5.229
 1322W        W 2319   7.601   7.132   5.439
 1323W        W 2320   1.914   4.956   0.181
 1324W        W 2321   5.814   0.605   7.206
 1325W        W 2322   2.414   3.338   3.550
 1326W        W 2323   5.947   0.852   4.478
 1327W        W 2324   7.072   0.464   5.924
 1328W        W 2325   5.108   5.571   3.873
 1329W        W 2326   6.119   4.913   3.718
 1330W        W 2327   6.069   3.507   6.110
 1331W        W 2328   7.708   1.714   7.231
 1332W        W 2329   1.076   5.248   4.481
 1333W        W 2330   7.738   1.006   6.227
 1334W        W 2331   4.952   5.119   0.358
 1335W        W 2332   3.882   7.454   1.443
 1336W        W 2333   7.136   7.857   5.127
 1337W        W 2334   1.508   2.550   1.237
 1338W        W 2335   3.943   0.452   6.544
 1339W        W 2336   7.671   4.616   1.903
 1340W        W 2337   4.984   0.197   5.627
 1341W        W 2338   2.006   2.364   7.588
 1342W        W 2339   1.266   3.859   5.422
 1343W        W 2340   4.074   1.852   1.220
 1344W        W 2341   2.767   6.856   2.116
 1345W        W 2342   2.694   1.833   6.786
 1346W        W 2343   1.776   3.968   1.882
 1347W        W 2344   1.433   6.839   5.911
 1348W        W 2345   0.937   6.741   7.292
 1349W        W 2346   3.873   2.918   0.695
 1350W        W 2347   4.633   1.684   6.480
 1351W        W 2348   3.132   5.419   7.093
 1352W        W 2349   5.669   0.753   6.255
 1353W        W 2350   2.224   1.472   2.370
 1354W        W 2351   3.789   6.089   2.538
 1355W        W 2352   2.176   6.495   3.556
 1356W        W 2353   3.637   6.393   4.251
 1357W        W 2354   4.946   7.098   3.972
 1358W        W 2355   2.105   6.729   6.482
 1359W        W 2356   6.312   6.895   0.582
 1360W        W 2357   2.082   3.323   4.749
 1361W        W 2358   5.952   6.594   1.539
 1362W        W 2359   1.833   4.741   7.357
 1363W        W 2360   3.296   2.774   7.354
 1364W        W 2361   6.362   5.429   3.533
 1365W        W 2362   1.617   6.714   2.744
 1366W        W 2363   3.305   5.931   0.083
 1367W        W 2364   6.758   2.202   4.719
 1368W        W 2365   5.590   6.386   6.761
 1369W        W 2366   1.693   7.448   6.320
 1370W        W 2367   0.718   1.108   1.178
 1371W        W 2368   5.579   3.161   7.796
 1372W        W 2369   4.543   5.476   0.451
 1373W        W 2370   1.112   3.647   0.840
 1374W        W 2371   6.331   0.780   2.972
 1375W        W 2372   4.908   4.412   5.364
 1376W        W 2373   7.290   1.129   3.799
 1377W        W 2374   3.714   2.040   1.465
 1378W        W 2375   7.237   5.494   2.855
 1379W        W 2376   3.796   6.571   6.955
 1380W        W 2377   1.778   6.030   1.271
 1381W        W 2378   7.591   2.620   1.561
 1382W        W 2379   1.116   5.761   4.478
 1383W        W 2380   5.633   5.043   6.633
 1384W        W 2381   7.688   3.141   4.289
 1385W        W 2382   3.902   6.224   5.291
 1386W        W 2383   7.548   7.130   7.445
 1387W        W 2384   4.078   6.811   1.228
 1388W        W 2385   7.313   4.817   7.484
 1389W        W 2386   7.388   6.661   7.393
 1390W        W 2387   2.617   2.730   5.294
 1391W        W 2388   0.066   4.405   4.621
 1392W        W 2389   0.529   5.970   3.629
 1393W        W 2390   1.082   5.121   3.580
 1394W        W 2391   6.769   6.635   7.704
 1395W        W 2392   0.164   6.131   6.648
 1396W        W 2393   0.785   4.239   2.560
 1397W        W 2394   3.554   3.598   7.563
 1398W        W 2395   0.559   3.992   6.820
 1399W        W 2396   1.324   3.160   2.276
 1400W        W 2397   1.894   1.102   7.970
 1401W        W 2398   2.800   4.596   3.966
 1402W        W 2399   4.534   1.931   3.184
 1403W        W 2400   1.318   0.987   7.823
 1404W        W 2401   5.336   6.642   0.219
 1405W        W 2402   5.751   4.630   2.029
 1406W        W 2403   2.358   2.337   7.234
 1407W        W 2404   5.462   7.445   5.905
 1408W        W 2405   5.394   7.332   3.924
 1409W        W 2406   1.932   6.657   7.394
 1410W        W 2407   5.947   3.208   1.205
 1411W        W 2408   3.313   3.006   6.108
 1412W        W 2409   5.677   0.823   1.485
 1413W        W 2410   0.181   0.313   7.472
 1414W        W 2411   4.061   5.772   6.440
 1415W        W 2412   4.046   2.412   5.076
 1416W        W 2413   0.514   7.411   3.602
 1417W        W 2414   1.272   7.091   6.285
 1418W        W 2415   6.063   2.971   2.700
 1419W        W 2416   6.957   3.770   7.577
 1420W        W 2417   4.540   2.522   6.452
 1421W        W 2418   3.530   0.381   6.928
 1422W        W 2419   7.183   0.281   0.651
 1423W        W 2420   7.941   6.739   7.309
 1424W        W 2421   5.034   1.272   4.762
 1425W        W 2422   0.590   4.329   2.097
 1426W        W 2423   1.725   4.283   6.180
 1427W        W 2424   4.089   2.308   3.037
 1428W        W 2425   3.429   0.065   4.510
 1429W        W 2426   6.949   0.172   3.822
 1430W        W 2427   1.038   3.576   7.433
 1431W        W 2428   2.652   5.645   1.216
 1432W        W 2429   6.126   6.337   3.747
 1433W        W 2430   6.615   3.402   5.975
 1434W        W 2431   2.175   1.295   1.874
 1435W        W 2432   1.999   3.934   4.185
 1436W        W 2433   0.093   1.727   6.402
 1437W        W 2434   3.957   7.669   5.072
 1438W        W 2435   1.754   2.981   6.474
 1439W        W 2436   5.235   1.803   2.756
 1440W        W 2437   1.685   1.293   0.421
 1441W        W 2438   3.094   5.313   2.624
 1442W        W 2439   7.130   4.711   6.527
 1443W        W 2440   0.545   6.512   7.548
 1444W        W 2441   1.963   6.059   5.524
 1445W        W 2442   0.439   1.282   2.433
 1446W        W 2443   0.256   3.930   1.979
 1447W        W 2444   0.659   7.191   4.113
 1448W        W 2445   0.855   0.673   0.025
 1449W        W 2446   1.077   4.228   4.581
 1450W        W 2447   2.568   4.130   3.144
 1451W        W 2448   6.233   7.846   2.339
 1452W        W 2449   5.847   3.300   0.705
 1453W        W 2450   3.880   1.009   3.305
 1454W        W 2451   3.349   0.740   2.617
 1455W        W 2452   5.279   3.992   3.233
 1456W        W 2453   1.204   1.112   5.672
 1457W        W 2454   4.636   3.366   0.664
 1458W        W 2455   5.867   1.910   6.439
 1459W        W 2456   4.545   0.159   7.952
 1460W        W 2457   2.785   0.380   0.604
 1461W        W 2458   7.453   7.326   6.059
 1462W        W 2459   7.622   7.395   6.668
 1463W        W 2460   4.467   7.370   2.231
 1464W        W 2461   5.881   6.534   6.110
 1465W        W 2462   4.576   5.573   6.286
 1466W        W 2463   4.989   5.452   0.756
 1467W        W 2464   4.415   1.467   7.041
 1468W        W 2465   5.107   6.191   5.599
 1469W        W 2466   2.370   4.307   4.069
 1470W        W 2467   3.922   7.605   7.838
 1471W        W 2468   2.765   6.116   0.203
 1472W        W 2469   6.542   2.731   2.102
 1473W        W 2470   5.764   6.814   0.460
 1474W        W 2471   5.685   5.510   5.672
 1475W        W 2472   6.651   7.169   3.600
 1476W        W 2473   7.032   1.800   7.258
 1477W        W 2474   7.466   0.457   7.432
 1478W        W 2475   1.287   5.443   7.476
 1479W        W 2476   5.107   0.975   1.586
 1480W        W 2477   2.976   2.602   0.038
 1481W        W 2478   5.096   0.342   3.456
 1482W        W 2479   1.698   6.040   0.745
 1483W        W 2480   4.291   7.260   5.202
 1484W        W 2481   1.832   1.599   6.802
 1485W        W 2482   1.571   0.159   3.661
 1486W        W 2483   2.094   1.166   2.820
 1487W        W 2484   4.369   0.714   2.394
 1488W        W 2485   4.646   5.944   7.121
 1489W        W 2486   2.184   7.558   7.565
 1490W        W 2487   7.515   7.059   1.667
 1491W        W 2488   5.632   6.273   0.555
 1492W        W 2489   7.772   5.007   2.868
 1493W        W 2490   6.322   5.740   3.160
 1494W        W 2491   2.543   3.552   1.080
 1495W        W 2492   1.489   3.457   3.598
 1496W        W 2493   7.830   0.337   1.667
 1497W        W 2494   4.464   7.476   4.318
 1498W        W 2495   7.209   1.608   1.007
 1499W        W 2496   7.819   2.425   0.823
 1500W        W 2497   1.791   1.401   2.178
 1501W        W 2498   7.616   1.182   4.268
 1502W        W 2499   4.175   5.704   2.109
 1503W        W 2500   3.777   5.363   5.362
 1504W        W 2501   0.808   4.842   0.512
 1505W        W 2502   0.557   0.767   0.837
 1506W        W 2503   3.286   1.367   7.418
 1507W        W 2504   6.292   1.655   3.345
 1508W        W 2505   0.073   7.311   2.727
 1509W        W 2506   6.108   0.476   2.685
 1510W        W 2507   5.746   0.169   2.180
 1511W        W 2508   0.618   1.067   6.389
 1512W        W 2509   6.417   4.384   7.015
 1513W        W 2510   3.487   2.871   3.580
 1514W        W 2511   3.098   0.309   1.107
 1515W        W 2512   5.510   5.288   6.214
 1516W        W 2513   0.645   6.649   2.890
 1517W        W 2514   0.532   6.204   3.129
 1518W        W 2515   2.766   0.317   2.755
 1519W        W 2516   3.502   4.934   4.472
 1520W        W 2517   3.043   0.357   7.017
 1521W        W 2518   3.017   4.769   2.442
 1522W        W 2519   6.702   1.587   1.012
 1523W        W 2520   7.654   7.606   4.340
 1524W        W 2521   2.018   2.511   2.460
 1525W        W 2522   6.307   0.071   1.782
 1526W        W 2523   2.529   5.449   6.412
 1527W        W 2524   3.428   5.126   6.378
 1528W        W 2525   7.373   3.802   3.851
 1529W        W 2526   3.151   2.240   0.425
 1530W        W 2527   2.520   0.357   6.877
 1531W        W 2528   7.254   2.918   6.584
 1532W        W 2529   2.553   1.263   1.173
 1533W        W 2530   0.615   4.878   2.424
 1534W        W 2531   0.527   1.313   7.570
 1535W        W 2532   7.116   5.438   7.039
 1536W        W 2533   1.996   0.039   3.378
 1537W        W 2534   7.485   2.874   6.173
 1538W        W 2535   7.608   5.585   6.318
 1539W        W 2536   6.753   7.597   4.938
 1540W        W 2537   3.436   4.257   2.072
 1541W        W 2538   7.335   1.510   1.843
 1542W        W 2539   0.624   7.690   4.069
 1543W        W 2540   1.189   5.528   3.936
 1544W        W 2541   3.193   1.760   0.687
 1545W        W 2542   0.464   4.182   5.391
 1546W        W 2543   5.085   2.746   4.577
 1547W        W 2544   4.427   7.403   7.943
 1548W        W 2545   7.248   0.490   4.654
 1549W        W 2546   0.710   6.439   5.324
 1550W        W 2547   0.163   4.900   4.767
 1551W        W 2548   1.390   3.206   7.456
 1552W        W 2549   5.150   3.670   7.039
 1553W        W 2550   1.789   5.157   2.912
 1554W        W 2551   7.661   4.491   5.009
 1555W        W 2552   2.531   1.020   2.076
 1556W        W 2553   6.670   2.988   3.101
 1557W        W 2554   3.016   3.384   3.020
 1558W        W 2555   5.513   6.056   4.835
 1559W        W 2556   1.410   4.579   4.291
 1560W        W 2557   5.463   1.985   5.925
 1561W        W 2558   0.329   1.328   6.700
 1562W        W 2559   1.992   2.594   6.242
 1563W        W 2560   0.177   2.228   6.485
 1564W        W 2561   4.955   7.737   2.542
 1565W        W 2562   4.453   4.650   6.316
 1566W        W 2563   3.162   2.630   5.248
 1567W        W 2564   5.435   6.421   5.905
 1568W        W 2565   6.318   4.527   1.141
 1569W        W 2566   2.795   3.487   5.861
 1570W        W 2567   5.505   4.971   7.689
 1571W        W 2568   5.537   4.004   1.517
 1572W        W 2569   6.639   4.827   0.731
 1573W        W 2570   1.803   5.346   5.932
 1574W        W 2571   1.989   5.266   3.367
 1575W        W 2572   4.133   0.137   6.210
 1576W        W 2573   7.056   0.768   6.982
 1577W        W 2574   5.358   4.297   3.635
 1578W        W 2575   0.576   4.406   7.164
 1579W        W 2576   1.878   5.033   5.482
 1580W        W 2577   5.772   2.401   0.733
 1581W        W 2578   4.438   5.155   5.178
 1582W        W 2579   2.671   1.960   6.346
 1583W        W 2580   1.765   6.611   2.013
 1584W        W 2581   2.391   3.822   4.472
 1585W        W 2582   5.814   5.830   2.740
 1586W        W 2583   0.692   1.024   3.893
 1587W        W 2584   7.767   7.646   2.235
 1588W        W 2585   4.076   4.360   3.129
 1589W        W 2586   3.205   0.791   3.265
 1590W        W 2587   5.526   5.410   6.960
 1591W        W 2588   1.990   2.427   0.388
 1592W        W 2589   2.868   5.553   4.098
 1593W        W 2590   0.274   4.709   0.782
 1594W        W 2591   2.491   4.948   4.695
 1595W        W 2592   2.467   0.548   1.911
 1596W        W 2593   2.116   7.090   7.854
 1597W        W 2594   1.486   6.327   1.615
 1598W        W 2595   6.531   4.885   2.258
 1599W        W 2596   3.216   3.324   6.769
 1600W        W 2597   2.458   2.247   5.464
 1601W        W 2598   0.776   7.026   3.448
 1602W        W 2599   6.257   0.049   7.804
 1603W        W 2600   5.881   5.785   2.260
 1604W        W 2601   2.657   2.848   4.251
 1605W        W 2602   7.808   6.537   3.566
 1606W        W 2603   1.912   1.926   2.155
 1607W        W 2604   3.943   1.522   7.879
 1608W        W 2605   4.429   4.711   7.357
 1609W        W 2606   7.494   1.191   0.984
 1610W        W 2607   5.960   1.198   4.977
 1611W        W 2608   5.166   3.297   2.554
 1612W        W 2609   6.900   2.318   0.600
 1613W        W 2610   0.302   0.807   6.721
 1614W        W 2611   4.177   4.628   3.946
 1615W        W 2612   5.798   2.784   3.902
 1616W        W 2613   7.073   4.583   3.715
 1617W        W 2614   7.179   3.464   7.307
 1618W        W 2615   4.388   4.202   7.528
 1619W        W 2616   1.875   5.670   2.863
 1620W        W 2617   1.249   4.190   0.839
 1621W        W 2618   4.097   2.644   2.627
 1622W        W 2619   4.638   6.353   5.644
 1623W        W 2620   3.580   3.200   1.064
 1624W        W 2621   2.526   3.282   7.359
 1625W        W 2622   3.843   0.785   5.595
 1626W        W 2623   1.962   0.517   3.593
 1627W        W 2624   7.330   6.644   5.037
 1628W        W 2625   1.413   2.944   7.000
 1629W        W 2626   5.574   2.616   4.746
 1630W        W 2627   3.474   0.799   4.361
 1631W        W 2628   2.069   7.374   4.854
 1632W        W 2629   0.448   0.638   6.210
 1633W        W 2630   1.566   1.004   6.819
 1634W        W 2631   2.584   5.970   4.201
 1635W        W 2632   0.985   4.245   5.589
 1636W        W 2633   7.237   3.157   3.177
 1637W        W 2634   1.110   1.259   3.675
 1638W        W 2635   5.261   0.686   1.193
 1639W        W 2636   4.119   2.395   5.632
 1640W        W 2637   5.874   0.817   3.559
 1641W        W 2638   1.037   0.452   5.780
 1642W        W 2639   6.299   6.001   5.856
 1643W        W 2640   1.074   0.291   3.689
 1644W        W 2641   6.143   0.541   2.088
 1645W        W 2642   5.531   6.685   1.928
 1646W        W 2643   2.042   2.409   3.534
 1647W        W 2644   2.566   1.447   6.183
 1648W        W 2645   4.419   0.971   7.169
 1649W        W 2646   0.638   0.525   7.210
 1650W        W 2647   2.848   5.053   4.266
 1651W        W 2648   5.473   6.391   4.374
 1652W        W 2649   6.034   5.371   2.947
 1653W        W 2650   7.386   3.899   0.274
 1654W        W 2651   3.674   5.952   4.055
 1655W        W 2652   1.230   7.334   0.843
 1656W        W 2653   1.219   1.645   0.593
 1657W        W 2654   2.223   1.625   6.504
 1658W        W 2655   6.641   4.362   0.719
 1659W        W 2656   3.288   3.889   5.962
 1660W        W 2657   7.706   2.435   2.812
 1661W        W 2658   0.890   2.120   4.923
 1662W        W 2659   1.811   5.290   6.790
 1663W        W 2660   3.406   2.905   0.505
 1664W        W 2661   7.425   4.879   2.271
 1665W        W 2662   5.567   7.750   2.973
 1666W        W 2663   4.133   5.179   7.571
 1667W        W 2664   2.783   3.019   2.816
 1668W        W 2665   0.612   2.337   0.724
 1669W        W 2666   4.255   5.130   6.119
 1670W        W 2667   6.893   2.676   4.015
 1671W        W 2668   2.199   1.995   6.868
 1672W        W 2669   0.589   3.749   2.325
 1673W        W 2670   5.467   4.137   5.269
 1674W        W 2671   7.769   0.007   0.609
 1675W        W 2672   3.719   0.018   3.235
 1676W        W 2673   4.320   7.270   0.451
 1677W        W 2674   5.418   6.375   7.265
 1678W        W 2675   4.813   4.765   3.028
 1679W        W 2676   2.061   6.437   0.850
 1680W        W 2677   2.863   5.175   5.543
 1681W        W 2678   0.153   2.682   0.156
 1682W        W 2679   2.775   4.943   2.837
 1683W        W 2680   2.021   3.080   1.712
 1684W        W 2681   6.124   0.950   6.361
 1685W        W 2682   7.318   7.049   6.474
 1686W        W 2683   4.045   6.518   2.556
 1687W        W 2684   3.916   2.169   2.571
 1688W        W 2685   0.726   0.133   1.450
 1689W        W 2686   5.090   2.202   1.444
 1690W        W 2687   4.726   6.268   3.282
 1691W        W 2688   2.015   3.447   4.292
 1692W        W 2689   1.862   7.796   7.231
 1693W        W 2690   4.214   6.426   0.818
 1694W        W 2691   0.938   2.908   6.753
 1695W        W 2692   3.070   3.944   5.142
 1696W        W 2693   0.766   6.490   4.750
 1697W        W 2694   6.610   2.008   7.665
 1698W        W 2695   5.943   7.490   2.121
 1699W        W 2696   3.714   6.869   0.295
 1700W        W 2697   4.883   0.308   0.446
 1701W        W 2698   2.308   3.787   7.320
 1702W        W 2699   4.270   4.141   6.190
 1703W        W 2700   4.616   1.846   1.382
 1704W        W 2701   2.951   1.450   3.834
 1705W        W 2702   1.573   0.384   4.582
 1706W        W 2703   1.293   4.122   1.702
 1707W        W 2704   1.215   3.061   5.914
 1708W        W 2705   0.721   5.963   5.409
 1709W        W 2706   0.454   0.381   2.065
 1710W        W 2707   2.170   4.913   3.719
 1711W        W 2708   6.632   3.002   3.596
 1712W        W 2709   5.205   3.388   0.588
 1713W        W 2710   4.047   6.348   3.892
 1714W        W 2711   4.296   3.258   4.496
 1715W        W 2712   5.036   3.868   1.023
 1716W        W 2713   3.318   1.371   1.550
 1717W        W 2714   2.112   6.221   4.236
 1718W        W 2715   3.852   3.025   1.763
 1719W        W 2716   6.383   1.554   7.511
 1720W        W 2717   3.671   7.465   4.715
 1721W        W 2718   4.329   4.651   0.978
 1722W        W 2719   0.715   6.990   4.646
 1723W        W 2720   4.883   4.704   7.157
 1724W        W 2721   6.255   2.020   4.540
 1725W        W 2722   0.548   2.462   1.569
 1726W        W 2723   4.487   5.047   1.235
 1727W        W 2724   2.172   6.763   0.433
 1728W        W 2725   2.230   5.879   0.403
 1729W        W 2726   1.522   4.102   4.276
 1730W        W 2727   0.988   3.514   5.086
 1731W        W 2728   2.072   5.509   5.415
 1732W        W 2729   4.080   4.237   6.683
 1733W        W 2730   6.735   0.824   0.649
 1734W        W 2731   4.665   1.165   0.297
 1735W        W 2732   0.621   6.282   2.585
 1736W        W 2733   4.929   5.654   6.654
 1737W        W 2734   4.505   1.092   6.669
 1738W        W 2735   0.290   6.139   6.042
 1739W        W 2736   7.285   7.605   3.871
 1740W        W 2737   6.005   7.506   5.724
 1741W        W 2738   3.982   4.589   2.126
 1742W        W 2739   5.631   0.344   2.737
 1743W        W 2740   5.580   7.423   4.392
 1744W        W 2741   5.927   2.244   2.715
 1745W        W 2742   3.972   0.976   2.861
 1746W        W 2743   7.447   6.249   5.807
 1747W        W 2744   7.803   0.754   4.114
 1748W        W 2745   4.717   4.169   0.270
 1749W        W 2746   0.612   7.069   7.615
 1750W        W 2747   2.352   5.459   0.670
 1751W        W 2748   1.368   7.756   1.100
 1752W        W 2749   4.551   5.998   4.611
 1753W        W 2750   0.932   1.536   7.806
 1754W        W 2751   5.969   2.937   7.246
 1755W        W 2752   3.856   3.053   6.327
 1756W        W 2753   2.370   6.774   1.299
 1757W        W 2754   4.830   1.667   0.222
 1758W        W 2755   3.657   1.297   6.978
 1759W        W 2756   4.447   4.458   4.385
 1760W        W 2757   3.032   2.300   0.911
 1761W        W 2758   3.076   6.488   3.479
 1762W        W 2759   3.312   3.741   7.089
 1763W        W 2760   3.918   2.826   0.213
 1764W        W 2761   3.806   6.906   2.221
 1765W        W 2762   7.464   4.337   1.413
 1766W        W 2763   1.634   1.361   7.526
 1767W        W 2764   6.781   5.229   7.787
 1768W        W 2765   0.824   4.641   7.502
 1769W        W 2766   3.539   2.936   6.742
 1770W        W 2767   0.574   4.829   6.865
 1771W        W 2768   0.809   6.249   6.416
 1772W        W 2769   1.505   1.445   5.910
 1773W        W 2770   2.334   4.612   3.045
 1774W        W 2771   6.421   3.439   1.378
 1775W        W 2772   2.523   3.767   3.990
 1776W        W 2773   5.718   6.797   7.143
 1777W        W 2774   4.141   2.110   4.654
 1778W        W 2775   3.156   3.795   2.145
 1779W        W 2776   7.337   2.077   0.571
 1780W        W 2777   5.039   2.898   5.793
 1781W        W 2778   6.321   3.321   0.828
 1782W        W 2779   4.276   5.978   5.638
 1783W        W 2780   1.000   2.528   3.516
 1784W        W 2781   5.976   1.385   1.665
 1785W        W 2782   2.449   1.452   6.961
 1786W        W 2783   7.434   7.999   7.757
 1787W        W 2784   6.953   3.751   4.740
 1788W        W 2785   3.228   1.384   4.333
 1789W        W 2786   1.714   7.015   3.110
 1790W        W 2787   4.507   1.992   3.671
 1791W        W 2788   4.557   0.474   6.112
 1792W        W 2789   3.501   5.123   1.203
 1793W        W 2790   0.218   3.341   0.548
 1794W        W 2791   1.149   1.280   0.176
 1795W        W 2792   2.243   6.374   6.846
 1796W        W 2793   3.839   5.018   1.902
 1797W        W 2794   6.737   1.683   5.535
 1798W        W 2795   2.236   1.807   3.504
 1799W        W 2796   3.303   4.917   6.917
 1800W        W 2797   6.465   4.263   1.682
 1801W        W 2798   4.609   3.604   7.491
 1802W        W 2799   0.145   7.014   7.565
 1803W        W 2800   6.803   1.985   6.028
 1804W        W 2801   5.795   7.642   5.286
 1805W        W 2802   6.118   6.671   2.613
 1806W        W 2803   1.076   6.421   0.699
 1807W        W 2804   3.646   5.627   4.519
 1808W        W 2805   0.041   3.567   4.054
 1809W        W 2806   7.584   1.423   3.453
 1810W        W 2807   5.750   0.903   2.899
 1811W        W 2808   5.680   3.808   3.481
 1812W        W 2809   2.062   0.753   5.628
 1813W        W 2810   6.958   3.903   5.267
 1814W        W 2811   1.268   3.395   4.717
 1815W        W 2812   4.620   4.195   1.225
 1816W        W 2813   0.701   2.712   7.109
 1817W        W 2814   0.211   6.146   2.027
 1818W        W 2815   4.886   3.186   5.348
 1819W        W 2816   3.319   6.605   1.799
 1820W        W 2817   0.096   0.840   5.805
 1821W        W 2818   3.081   6.574   6.422
 1822W        W 2819   0.478   5.827   0.451
 1823W        W 2820   5.625   4.828   4.497
 1824W        W 2821   1.130   4.680   3.813
 1825W        W 2822   5.034   5.779   4.941
 1826W        W 2823   7.385   6.463   0.108
 1827W        W 2824   0.993   4.627   2.170
 1828W        W 2825   1.239   3.952   2.832
 1829W        W 2826   4.080   1.861   5.925
 1830W        W 2827   6.219   3.480   1.869
 1831W        W 2828   0.039   1.014   4.501
 1832W        W 2829   3.275   5.192   5.873
 1833W        W 2830   5.521   7.260   0.821
 1834W        W 2831   6.354   2.104   5.081
 1835W        W 2832   1.212   4.380   1.303
 1836W        W 2833   6.844   4.263   6.637
 1837W        W 2834   1.089   6.075   1.719
 1838W        W 2835   0.263   5.949   2.745
 1839W        W 2836   4.371   5.161   7.115
 1840W        W 2837   5.958   1.234   0.640
 1841W        W 2838   7.461   4.369   3.499
 1842W        W 2839   5.084   2.527   6.522
 1843W        W 2840   2.245   1.882   6.034
 1844W        W 2841   3.278   0.957   6.817
 1845W        W 2842   7.207   7.464   0.255
 1846W        W 2843   5.989   2.246   0.315
 1847W        W 2844   7.474   4.896   3.837
 1848W        W 2845   0.162   5.335   3.125
 1849W        W 2846   0.639   0.516   3.984
 1850W        W 2847   0.563   6.360   6.866
 1851W        W 2848   1.679   3.131   3.960
 1852W        W 2849   4.232   7.719   1.172
 1853W        W 2850   0.231   0.396   6.987
 1854W        W 2851   4.848   2.928   6.281
 1855W        W 2852   5.347   1.805   7.285
 1856W        W 2853   2.121   5.639   6.736
 1857W        W 2854   0.173   6.455   2.522
 1858W        W 2855   5.135   4.834   0.711
 1859W        W 2856   3.278   2.746   0.980
 1860W        W 2857   0.910   2.543   2.820
 1861W        W 2858   1.905   5.102   4.144
 1862W        W 2859   6.699   5.577   6.068
 1863W        W 2860   1.514   6.414   4.897
 1864W        W 2861   3.148   2.064   6.582
 1865W        W 2862   7.590   4.065   6.029
 1866W        W 2863   7.778   2.212   3.494
 1867W        W 2864   2.633   6.592   6.671
 1868W        W 2865   7.014   0.758   5.575
 1869W        W 2866   3.049   3.194   0.397
 1870W        W 2867   7.161   2.308   6.846
 1871W        W 2868   5.751   4.509   2.904
 1872W        W 2869   1.516   6.114   0.282
 1873W        W 2870   2.008   2.416   2.989
 1874W        W 2871   6.247   5.436   5.905
 1875W        W 2872   0.508   3.635   5.074
 1876W        W 2873   6.622   0.755   5.958
 1877W        W 2874   1.246   4.714   4.776
 1878W        W 2875   2.197   0.056   1.894
 1879W        W 2876   2.090   3.210   2.385
 1880W        W 2877   3.004   6.184   6.099
 1881W        W 2878   1.817   4.992   1.822
 1882W        W 2879   4.865   2.099   6.601
 1883W        W 2880   6.064   3.808   1.584
 1884W        W 2881   5.454   0.482   0.221
 1885W        W 2882   3.931   4.829   6.378
 1886W        W 2883   2.298   0.101   5.777
 1887W        W 2884   4.674   1.634   4.049
 1888W        W 2885   4.324   1.275   2.658
 1889W        W 2886   6.648   5.476   3.956
 1890W        W 2887   3.206   0.200   7.426
 1891W        W 2888   3.348   5.392   4.159
 1892W        W 2889   6.829   1.081   2.116
 1893W        W 2890   3.873   3.403   4.280
 1894W        W 2891   0.761   5.834   1.365
 1895W        W 2892   2.897   5.189   1.945
 1896W        W 2893   6.924   5.663   7.516
 1897W        W 2894   0.252   6.321   5.505
 1898W        W 2895   0.999   1.575   1.240
 1899W        W 2896   2.669   5.857   0.711
 1900W        W 2897   2.109   6.761   4.220
 1901W        W 2898   1.855   0.008   4.644
 1902W        W 2899   1.808   0.282   6.695
 1903W        W 2900   4.581   3.576   0.203
 1904W        W 2901   1.275   3.983   5.953
 1905W        W 2902   7.166   7.340   7.073
 1906W        W 2903   6.068   6.120   1.895
 1907W        W 2904   4.206   1.064   4.467
 1908W        W 2905   3.553   7.069   3.098
 1909W        W 2906   0.902   5.098   5.379
 1910W        W 2907   3.240   5.366   7.827
 1911W        W 2908   6.828   2.538   2.613
 1912W        W 2909   7.382   1.826   7.628
 1913W        W 2910   7.585   2.101   4.553
 1914W        W 2911   1.988   3.482   3.790
 1915W        W 2912   6.788   4.567   1.136
 1916W        W 2913   6.986   1.091   7.327
 1917W        W 2914   6.021   2.005   3.662
 1918W        W 2915   3.232   3.637   1.184
 1919W        W 2916   7.208   6.114   2.773
 1920W        W 2917   2.721   6.087   2.596
 1921W        W 2918   2.496   3.248   1.568
 1922W        W 2919   3.246   3.966   4.592
 1923W        W 2920   5.919   0.474   3.160
 1924W        W 2921   2.226   5.983   3.793
 1925W        W 2922   3.987   5.360   6.617
 1926W        W 2923   6.694   0.054   2.632
 1927W        W 2924   4.480   4.619   1.488
 1928W        W 2925   1.183   2.925   4.479
 1929W        W 2926   5.804   2.326   4.417
 1930W        W 2927   2.756   1.468   7.538
 1931W        W 2928   4.930   2.152   0.417
 1932W        W 2929   5.550   0.934   0.903
 1933W        W 2930   2.230   4.743   2.211
 1934W        W 2931   7.504   0.718   2.275
 1935W        W 2932   3.090   7.742   7.182
 1936W        W 2933   4.484   4.262   1.770
 1937W        W 2934   2.129   7.321   4.267
 1938W        W 2935   1.609   5.640   1.037
 1939W        W 2936   6.337   6.748   3.548
 1940W        W 2937   2.731   3.539   2.157
 1941W        W 2938   4.734   1.451   7.433
 1942W        W 2939   7.606   6.997   3.671
 1943W        W 2940   5.458   7.250   7.553
 1944W        W 2941   4.716   6.765   3.543
 1945W        W 2942   1.042   4.241   4.080
 1946W        W 2943   7.744   3.892   3.563
 1947W        W 2944   0.779   0.999   0.453
 1948W        W 2945   5.931   6.818   6.623
 1949W        W 2946   1.308   3.509   7.007
 1950W        W 2947   2.386   7.083   7.388
 1951W        W 2948   3.090   7.656   1.864
 1952W        W 2949   1.947   4.569   5.697
 1953W        W 2950   4.389   6.038   6.102
 1954W        W 2951   3.083   3.534   2.502
 1955W        W 2952   1.068   6.386   6.983
 1956W        W 2953   5.890   4.705   6.356
 1957W        W 2954   1.229   0.181   0.542
 1958W        W 2955   1.669   5.554   4.272
 1959W        W 2956   1.082   0.725   7.076
 1960W        W 2957   6.805   6.437   2.152
 1961W        W 2958   7.790   7.073   6.995
 1962W        W 2959   7.244   0.813   4.263
 1963W        W 2960   5.303   5.041   3.127
 1964W        W 2961   3.117   3.294   7.520
 1965W        W 2962   2.739   3.922   6.057
 1966W        W 2963   0.376   5.804   6.950
 1967W        W 2964   1.110   3.821   1.276
 1968W        W 2965   1.421   1.628   3.957
 1969W        W 2966   0.104   6.058   0.834
 1970W        W 2967   5.507   5.082   5.500
 1971W        W 2968   3.947   3.026   4.696
 1972W        W 2969   5.989   6.834   2.167
 1973W        W 2970   1.529   5.814   1.707
 1974W        W 2971   6.769   6.851   5.832
 1975W        W 2972   4.480   1.822   4.931
 1976W        W 2973   4.725   0.042   3.589
 1977W        W 2974   3.558   2.223   5.276
 1978W        W 2975   1.804   0.351   5.506
 1979W        W 2976   1.537   7.087   1.849
 1980W        W 2977   5.708   1.903   0.037
 1981W        W 2978   0.644   2.928   1.359
 1982W        W 2979   6.453   3.035   7.293
 1983W        W 2980   4.664   1.779   1.867
 1984W        W 2981   0.372   2.585   6.091
 1985W        W 2982   1.773   5.616   6.378
 1986W        W 2983   1.019   1.694   5.050
 1987W        W 2984   2.013   0.075   6.290
 1988W        W 2985   7.173   7.619   3.381
 1989W        W 2986   2.583   0.053   0.162
 1990W        W 2987   2.198   3.979   4.941
 1991W        W 2988   7.267   2.039   4.888
 1992W        W 2989   5.544   1.009   4.693
 1993W        W 2990   1.641   7.805   5.591
 1994W        W 2991   5.860   1.826   3.177
 1995W        W 2992   1.119   1.322   1.653
 1996W        W 2993   6.616   3.000   2.510
 1997W        W 2994   1.498   6.300   7.258
 1998W        W 2995   7.880   4.695   2.447
 1999W        W 2996   1.089   0.951   6.147
 2000W        W 2997   7.939   7.609   1.269
 2001W        W 2998   7.814   6.561   6.840
 2002W        W 2999   4.960   4.899   5.403
 2003W        W 3000   4.192   6.397   4.677
 2004W        W 3001   0.905   2.939   1.780
 2005W        W 3002   2.230   5.745   7.698
 2006W        W 3003   1.069   1.086   6.610
 2007W        W 3004   2.942   1.370   0.471
 2008W        W 3005   7.928   7.158   1.884
 2009W        W 3006   3.392   6.196   5.279
 2010W        W 3007   6.058   4.792   2.478
 2011W        W 3008   2.781   0.949   5.994
 2012W        W 3009   6.084   7.280   4.401
 2013W        W 3010   3.231   4.870   3.951
 2014W        W 3011   2.786   2.278   2.540
 2015W        W 3012   3.359   7.246   2.620
 2016W        W 3013   4.808   0.959   5.238
 2017W        W 3014   3.953   4.801   4.660
 2018W        W 3015   3.942   5.517   7.113
 2019W        W 3016   2.064   5.285   4.671
 2020W        W 3017   0.980   5.934   6.746
 2021W        W 3018   2.474   4.554   3.569
 2022W        W 3019   7.683   7.643   1.674
 2023W        W 3020   4.058   2.877   5.157
 2024W        W 3021   0.227   0.752   3.516
 2025W        W 3022   2.263   0.605   6.523
 2026W        W 3023   0.232   0.842   4.000
 2027W        W 3024   6.693   0.490   2.870
 2028W        W 3025   2.684   4.019   1.933
 2029W        W 3026   1.815   1.539   3.692
 2030W        W 3027   2.143   5.431   0.147
 2031W        W 3028   6.948   5.099   0.420
 2032W        W 3029   4.020   3.477   7.739
 2033W        W 3030   2.827   0.854   6.900
 2034W        W 3031   4.912   7.167   6.819
 2035W        W 3032   7.252   3.724   3.317
 2036W        W 3033   0.162   1.208   6.194
 2037W        W 3034   4.949   4.012   3.649
 2038W        W 3035   0.939   2.608   1.054
 2039W        W 3036   6.930   3.290   1.548
 2040W        W 3037   6.875   2.443   7.941
 2041W        W 3038   2.224   7.372   2.325
 2042W        W 3039   1.354   6.380   3.694
 2043W        W 3040   0.232   0.326   0.117
 2044W        W 3041   7.065   3.438   6.826
 2045W        W 3042   2.483   2.831   2.485
 2046W        W 3043   4.043   3.532   1.679
 2047W        W 3044   2.497   5.128   0.319
 2048W        W 3045   4.160   1.781   2.363
 2049W        W 3046   6.145   3.224   7.673
 2050W        W 3047   5.229   1.415   3.787
 2051W        W 3048   7.013   5.180   2.507
 2052W        W 3049   4.945   3.942   1.648
 2053W        W 3050   6.393   6.526   5.815
 2054W        W 3051   2.329   1.970   4.965
 2055W        W 3052   1.610   4.718   1.373
 2056W        W 3053   1.421   4.692   0.411
 2057W        W 3054   5.711   2.009   6.919
 2058W        W 3055   3.969   2.968   3.260
 2059W        W 3056   0.895   3.346   2.040
 2060W        W 3057   3.964   0.095   7.596
 2061W        W 3058   1.916   6.162   6.509
 2062W        W 3059   0.810   3.740   4.701
 2063W        W 3060   3.886   2.596   6.532
 2064W        W 3061   4.173   0.688   4.726
 2065W        W 3062   6.142   3.025   2.139
 2066W        W 3063   0.879   4.754   4.268
 2067W        W 3064   2.978   5.242   6.632
 2068W        W 3065   7.896   6.912   3.206
 2069W        W 3066   5.367   4.123   7.115
 2070W        W 3067   6.887   0.308   4.326
 2071W        W 3068   6.764   7.893   6.301
 2072W        W 3069   2.869   5.454   3.157
 2073W        W 3070   0.456   6.649   3.371
 2074W        W 3071   6.100   5.880   4.204
 2075W        W 3072   4.785   7.683   3.005
 2076W        W 3073   3.725   7.776   2.289
 2077W        W 3074   6.052   5.610   7.202
 2078W        W 3075   5.622   2.695   7.608
 2079W        W 3076   5.561   2.458   2.033
 2080W        W 3077   0.203   4.385   2.512
 2081W        W 3078   7.213   2.023   6.405
 2082W        W 3079   3.345   1.759   6.980
 2083W        W 3080   7.265   3.383   4.131
 2084W        W 3081   0.897   2.437   1.927
 2085W        W 3082   3.267   7.841   2.957
 2086W        W 3083   5.191   4.403   4.922
 2087W        W 3084   4.155   3.388   0.822
 2088W        W 3085   1.011   4.268   3.553
 2089W        W 3086   5.980   0.222   6.923
 2090W        W 3087   1.931   5.643   1.890
 2091W        W 3088   5.361   5.747   4.392
 2092W        W 3089   5.443   6.904   6.586
 2093W        W 3090   5.150   4.302   1.191
 2094W        W 3091   3.982   0.049   1.331
 2095W        W 3092   0.950   7.602   7.897
 2096W        W 3093   2.175   4.301   4.528
 2097W        W 3094   4.747   2.482   2.916
 2098W        W 3095   7.028   7.809   1.031
 2099W        W 3096   5.490   1.311   1.813
 2100W        W 3097   1.715   3.751   2.946
 2101W        W 3098   1.969   0.800   7.492
 2102W        W 3099   4.339   5.586   4.381
 2103W        W 3100   3.614   5.681   6.101
 2104W        W 3101   6.375   0.152   3.029
 2105W        W 3102   6.007   2.726   6.585
 2106W        W 3103   5.124   7.519   0.590
 2107W        W 3104   0.631   2.561   6.552
 2108W        W 3105   2.343   4.822   4.155
 2109W        W 3106   6.977   2.464   1.216
 2110W        W 3107   4.050   4.918   1.443
 2111W        W 3108   1.003   7.335   3.802
 2112W        W 3109   7.680   2.976   3.495
 2113W        W 3110   7.041   7.097   7.540
 2114W        W 3111   0.184   4.545   7.415
 2115W        W 3112   3.354   2.013   1.790
 2116W        W 3113   2.768   0.619   3.835
 2117W        W 3114   2.150   0.807   5.092
 2118W        W 3115   5.449   2.810   6.303
 2119W        W 3116   1.060   6.492   1.365
 2120W        W 3117   5.555   7.621   7.290
 2121W        W 3118   6.516   0.704   5.207
 2122W        W 3119   7.685   3.752   0.675
 2123W        W 3120   7.342   4.455   4.127
 2124W        W 3121   0.872   0.546   1.706
 2125W        W 3122   7.572   0.771   0.087
 2126W        W 3123   3.516   5.082   0.621
 2127W        W 3124   5.756   2.698   0.226
 2128W        W 3125   6.722   6.583   0.658
 2129W        W 3126   1.899   2.264   4.275
 2130W        W 3127   6.558   6.847   0.143
 2131W        W 3128   0.443   7.415   7.157
 2132W        W 3129   1.786   7.842   0.605
 2133W        W 3130   1.247   2.453   5.273
 2134W        W 3131   7.451   7.665   4.820
 2135W        W 3132   1.708   0.644   5.006
 2136W        W 3133   2.120   6.678   2.532
 2137W        W 3134   5.907   4.243   7.130
 2138W        W 3135   6.799   7.672   5.475
 2139W        W 3136   0.806   3.828   6.025
 2140W        W 3137   4.331   5.525   0.889
 2141W        W 3138   7.492   0.128   5.132
 2142W        W 3139   5.073   7.462   4.394
 2143W        W 3140   5.363   1.553   5.650
 2144W        W 3141   5.110   0.027   7.707
 2145W        W 3142   3.310   5.472   0.875
 2146W        W 3143   4.911   1.143   4.080
 2147W        W 3144   3.717   5.742   5.093
 2148W        W 3145   7.123   6.255   4.071
 2149W        W 3146   7.317   7.223   4.236
 2150W        W 3147   1.492   0.154   5.789
 2151W        W 3148   0.327   2.872   7.453
 2152W        W 3149   2.571   4.005   2.386
 2153W        W 3150   1.078   7.080   2.087
 2154W        W 3151   0.613   0.002   0.178
 2155W        W 3152   6.944   3.436   0.304
 2156W        W 3153   2.419   6.278   0.534
 2157W        W 3154   4.846   5.551   4.475
 2158W        W 3155   5.207   3.082   6.648
 2159W        W 3156   3.010   2.529   6.167
 2160W        W 3157   5.039   4.198   2.823
 2161W        W 3158   2.634   6.972   4.249
 2162W        W 3159   4.629   6.282   1.933
 2163W        W 3160   4.204   0.818   0.112
 2164W        W 3161   6.707   0.517   4.802
 2165W        W 3162   4.621   4.225   5.770
 2166W        W 3163   0.408   0.875   3.054
 2167W        W 3164   6.818   5.697   1.894
 2168W        W 3165   6.733   6.893   7.191
 2169W        W 3166   1.136   2.339   1.479
 2170W        W 3167   4.916   3.628   2.192
 2171W        W 3168   6.431   2.981   4.706
 2172W        W 3169   4.453   1.194   1.762
 2173W        W 3170   3.291   6.397   4.633
 2174W        W 3171   6.050   6.236   2.412
 2175W        W 3172   3.663   7.116   1.159
 2176W        W 3173   0.318   6.306   3.936
 2177W        W 3174   0.132   4.937   6.495
 2178W        W 3175   5.599   6.659   2.415
 2179W        W 3176   7.719   2.776   5.212
 2180W        W 3177   6.565   1.234   0.507
 2181W        W 3178   6.858   0.999   4.632
 2182W        W 3179   6.335   5.825   4.635
 2183W        W 3180   1.793   7.700   4.061
 2184W        W 3181   0.518   0.560   5.704
 2185W        W 3182   3.605   6.627   0.859
 2186W        W 3183   5.644   4.654   5.854
 2187W        W 3184   6.440   5.876   3.756
 2188W        W 3185   7.455   4.821   1.507
 2189W        W 3186   7.360   2.670   0.803
 2190W        W 3187   7.054   1.237   0.668
 2191W        W 3188   3.747   0.504   7.963
 2192W        W 3189   3.042   6.882   7.897
 2193W        W 3190   4.836   0.914   2.460
 2194W        W 3191   4.485   1.081   3.947
 2195W        W 3192   7.461   0.564   5.467
 2196W        W 3193   1.196   2.100   3.814
 2197W        W 3194   3.531   2.557   3.964
 2198W        W 3195   4.010   0.363   7.172
 2199W        W 3196   2.665   1.281   2.603
 2200W        W 3197   6.451   7.251   5.908
 2201W        W 3198   5.734   6.775   3.586
 2202W        W 3199   1.245   1.892   7.627
 2203W        W 3200   6.143   5.036   1.992
 2204W        W 3201   1.369   0.912   4.711
 2205W        W 3202   3.060   7.139   1.803
 2206W        W 3203   0.136   7.306   4.068
 2207W        W 3204   7.712   2.916   1.059
 2208W        W 3205   6.502   4.965   6.060
 2209W        W 3206   3.713   3.025   7.632
 2210W        W 3207   4.830   5.991   4.145
 2211W        W 3208   6.005   5.173   6.258
 2212W        W 3209   6.293   5.731   2.574
 2213W        W 3210   6.619   6.289   4.656
 2214W        W 3211   6.605   0.380   5.674
 2215W        W 3212   1.946   6.233   2.305
 2216W        W 3213   6.194   2.331   4.114
 2217W        W 3214   6.335   2.501   4.544
 2218W        W 3215   7.197   7.111   5.707
 2219W        W 3216   3.094   5.030   7.484
 2220W        W 3217   1.483   2.462   2.911
 2221W        W 3218   7.127   5.552   6.250
 2222W        W 3219   6.832   3.459   3.281
 2223W        W 3220   7.644   1.662   4.360
 2224W        W 3221   2.259   4.979   2.707
 2225W        W 3222   6.951   5.347   4.430
 2226W        W 3223   4.527   7.290   3.814
 2227W        W 3224   2.419   6.193   7.567
 2228W        W 3225   1.471   1.984   5.645
 2229W        W 3226   6.239   7.153   2.653
 2230W        W 3227   6.896   5.240   6.613
 2231W        W 3228   0.248   6.419   4.520
 2232W        W 3229   6.414   5.671   0.829
 2233W        W 3230   4.150   6.563   3.433
 2234W        W 3231   1.709   3.452   2.051
 2235W        W 3232   5.853   5.479   3.467
 2236W        W 3233   5.027   6.128   3.666
 2237W        W 3234   1.676   0.131   1.333
 2238W        W 3235   6.952   7.493   2.838
 2239W        W 3236   6.462   3.965   1.228
 2240W        W 3237   1.542   2.613   4.929
 2241W        W 3238   2.854   6.739   5.971
 2242W        W 3239   4.171   7.735   0.390
 2243W        W 3240   6.433   1.727   2.370
 2244W        W 3241   3.951   3.773   3.846
 2245W        W 3242   3.476   6.216   6.247
 2246W        W 3243   5.976   4.273   1.778
 2247W        W 3244   4.231   3.468   6.724
 2248W        W 3245   7.483   5.725   2.533
 2249W        W 3246   4.136   3.286   2.536
 2250W        W 3247   0.953   1.296   4.738
 2251W        W 3248   4.059   6.338   7.776
 2252W        W 3249   6.695   3.304   5.453
 2253W        W 3250   2.926   2.115   7.123
 2254W        W 3251   2.477   6.826   2.954
 2255W        W 3252   5.555   3.660   3.024
 2256W        W 3253   2.247   4.159   6.946
 2257W        W 3254   5.390   3.030   1.382
 2258W        W 3255   7.443   7.093   3.193
 2259W        W 3256   5.739   3.897   4.912
 2260W        W 3257   1.410   4.859   2.240
 2261W        W 3258   4.997   3.088   4.195
 2262W        W 3259   2.423   0.289   3.616
 2263W        W 3260   1.099   2.567   4.093
 2264W        W 3261   1.967   3.293   3.298
 2265W        W 3262   5.251   3.082   4.908
 2266W        W 3263   5.037   5.659   3.284
 2267W        W 3264   7.133   3.427   5.196
 2268W        W 3265   1.780   2.873   2.126
 2269W        W 3266   6.670   6.111   7.621
 2270W        W 3267   0.292   7.669   4.888
 2271W        W 3268   7.219   4.737   3.237
 2272W        W 3269   7.135   7.534   6.400
 2273W        W 3270   2.107   2.008   0.655
 2274W        W 3271   6.875   3.095   0.971
 2275W        W 3272   5.652   6.236   1.100
 2276W        W 3273   3.255   7.550   6.398
 2277W        W 3274   3.218   6.107   1.907
 2278W        W 3275   1.544   0.199   5.038
 2279W        W 3276   1.450   0.460   4.087
 2280W        W 3277   2.841   6.672   1.246
 2281W        W 3278   1.278   3.882   4.863
 2282W        W 3279   5.001   5.580   7.208
 2283W        W 3280   6.966   4.513   7.226
 2284W        W 3281   5.764   7.175   5.399
 2285W        W 3282   4.330   1.230   4.911
 2286W        W 3283   3.341   5.430   3.134
 2287W        W 3284   1.903   2.693   0.976
 2288W        W 3285   0.478   6.759   5.044
 2289W        W 3286   5.564   5.823   5.305
 2290W        W 3287   4.043   5.097   0.883
 2291W        W 3288   5.302   6.684   0.721
 2292W        W 3289   5.586   1.293   3.450
 2293W        W 3290   0.690   5.426   4.971
 2294W        W 3291   2.518   0.477   4.889
 2295W        W 3292   0.700   3.652   7.780
 2296W        W 3293   1.488   5.189   6.388
 2297W        W 3294   1.044   1.307   4.171
 2298W        W 3295   6.523   5.783   7.263
 2299W        W 3296   3.752   0.503   6.073
 2300W        W 3297   0.513   1.830   4.811
 2301W        W 3298   4.783   6.740   2.770
 2302W        W 3299   3.101   5.711   1.584
 2303W        W 3300   3.629   3.848   0.435
 2304W        W 3301   0.525   2.920   5.693
 2305W        W 3302   6.967   2.028   1.001
 2306W        W 3303   4.198   2.082   1.728
 2307W        W 3304   2.406   5.881   1.700
 2308W        W 3305   3.858   0.726   2.009
 2309W        W 3306   1.931   6.158   1.784
 2310W        W 3307   5.854   4.893   3.268
 2311W        W 3308   1.214   5.196   5.003
 2312W        W 3309   2.459   0.814   2.590
 2313W        W 3310   7.754   1.383   6.869
 2314W        W 3311   7.678   3.352   3.801
 2315W        W 3312   3.599   4.221   3.202
 2316W        W 3313   4.835   6.475   6.102
 2317W        W 3314   2.079   7.093   2.774
 2318W        W 3315   0.333   0.955   2.018
 2319W        W 3316   6.668   1.202   5.647
 2320W        W 3317   3.288   3.576   0.228
 2321W        W 3318   5.373   4.605   5.382
 2322W        W 3319   2.251   4.376   7.539
 2323W        W 3320   4.640   3.769   4.008
 2324W        W 3321   1.031   7.581   2.617
 2325W        W 3322   1.216   3.720   3.284
 2326W        W 3323   6.590   5.412   2.234
 2327W        W 3324   6.456   1.651   3.801
 2328W        W 3325   6.677   7.587   0.570
 2329W        W 3326   4.989   1.796   3.641
 2330W        W 3327   3.642   3.473   2.554
 2331W        W 3328   3.650   0.017   5.881
 2332W        W 3329   1.544   5.166   0.676
 2333W        W 3330   4.218   7.699   3.800
 2334W        W 3331   7.775   6.169   2.697
 2335W        W 3332   6.416   1.033   4.864
 2336W        W 3333   1.510   2.028   4.292
 2337W        W 3334   0.429   1.961   2.520
 2338W        W 3335   2.523   4.450   1.529
 2339W        W 3336   6.936   1.818   5.127
 2340W        W 3337   0.129   3.465   3.483
 2341W        W 3338   7.636   6.668   2.387
 2342W        W 3339   6.046   2.979   1.639
 2343W        W 3340   2.842   3.989   1.144
 2344W        W 3341   1.386   7.552   7.050
 2345W        W 3342   3.608   5.888   6.603
 2346W        W 3343   3.419   3.750   6.563
 2347W        W 3344   2.886   6.345   3.040
 2348W        W 3345   2.489   5.551   3.482
 2349W        W 3346   6.005   6.215   4.596
 2350W        W 3347   7.345   7.023   2.639
 2351W        W 3348   1.671   1.758   0.733
 2352W        W 3349   4.665   0.310   2.633
 2353W        W 3350   1.426   4.453   7.332
 2354W        W 3351   1.582   1.811   6.262
 2355W        W 3352   7.780   3.028   2.000
 2356W        W 3353   5.125   4.773   4.623
 2357W        W 3354   6.228   5.542   5.016
 2358W        W 3355   2.889   1.781   2.951
 2359W        W 3356   6.794   5.913   0.044
 2360W        W 3357   3.983   2.134   7.231
 2361W        W 3358   3.016   0.458   6.063
 2362W        W 3359   4.167   2.570   2.006
 2363W        W 3360   7.516   3.142   2.407
 2364W        W 3361   6.396   3.310   4.315
 2365W        W 3362   4.122   0.905   3.715
 2366W        W 3363   6.085   6.156   1.349
 2367W        W 3364   5.216   2.380   5.041
 2368W        W 3365   3.280   5.508   2.105
 2369W        W 3366   1.845   4.741   3.263
 2370W        W 3367   5.475   5.899   7.382
 2371W        W 3368   1.669   4.319   6.824
 2372W        W 3369   3.161   6.835   0.380
 2373W        W 3370   4.757   3.484   4.378
 2374W        W 3371   0.737   3.278   4.419
 2375W        W 3372   2.713   1.525   3.347
 2376W        W 3373   6.111   6.953   5.798
 2377W        W 3374   0.895   0.387   2.244
 2378W        W 3375   1.253   7.497   6.562
 2379W        W 3376   2.128   1.851   0.100
 2380W        W 3377   0.079   3.171   7.051
 2381W        W 3378   2.124   1.533   0.523
 2382W        W 3379   1.473   0.910   7.377
 2383W        W 3380   7.246   2.710   7.094
 2384W        W 3381   2.497   2.480   7.671
 2385W        W 3382   0.382   2.418   2.772
 2386W        W 3383   7.420   6.188   3.252
 2387W        W 3384   2.365   4.870   1.741
 2388W        W 3385   2.344   5.361   3.023
 2389W        W 3386   4.668   2.637   5.943
 2390W        W 3387   5.416   0.299   1.415
 2391W        W 3388   0.714   0.625   1.251
 2392W        W 3389   6.664   1.625   4.260
 2393W        W 3390   6.093   2.588   7.528
 2394W        W 3391   2.472   4.007   7.906
 2395W        W 3392   5.545   7.827   1.351
 2396W        W 3393   0.124   0.319   5.971
 2397W        W 3394   3.785   5.977   1.942
 2398W        W 3395   6.416   1.162   0.953
 2399W        W 3396   0.616   5.456   4.477
 2400W        W 3397   4.948   4.407   4.291
 2401W        W 3398   6.944   0.792   2.590
 2402W        W 3399   0.982   5.379   3.104
 2403W        W 3400   1.874   6.790   5.058
 2404W        W 3401   7.388   7.790   0.654
 2405W        W 3402   1.058   6.603   5.652
 2406W        W 3403   5.939   0.068   0.571
 2407W        W 3404   5.789   1.072   3.986
 2408W        W 3405   1.422   7.697   1.736
 2409W        W 3406   0.399   6.776   7.109
 2410W        W 3407   2.339   1.238   5.069
 2411W        W 3408   2.571   6.662   5.562
 2412W        W 3409   1.515   5.928   3.133
 2413W        W 3410   0.562   5.079   2.993
 2414W        W 3411   0.048   2.331   1.604
 2415W        W 3412   6.328   3.468   2.389
 2416W        W 3413   7.054   3.440   6.324
 2417W        W 3414   0.449   6.542   6.282
 2418W        W 3415   3.318   0.495   0.563
 2419W        W 3416   4.597   5.111   0.743
 2420W        W 3417   1.876   1.648   5.698
 2421W        W 3418   6.973   7.115   6.179
 2422W        W 3419   4.475   6.827   5.437
 2423W        W 3420   6.714   0.337   0.696
 2424W        W 3421   3.046   5.043   3.254
 2425W        W 3422   3.563   3.407   1.516
 2426W        W 3423   0.611   1.831   6.543
 2427W        W 3424   6.870   7.807   7.817
 2428W        W 3425   1.387   1.882   1.261
 2429W        W 3426   0.260   2.685   6.922
 2430W        W 3427   1.723   7.499   2.662
 2431W        W 3428   5.693   3.337   6.945
 2432W        W 3429   1.849   1.647   2.752
 2433W        W 3430   0.535   3.169   6.935
 2434W        W 3431   4.471   3.153   5.026
 2435W        W 3432   1.766   0.051   7.825
 2436W        W 3433   2.558   7.414   1.910
 2437W        W 3434   0.105   3.608   2.334
 2438W        W 3435   0.006   4.725   1.240
 2439W        W 3436   5.667   1.540   7.806
 2440W        W 3437   5.573   7.132   2.179
 2441W        W 3438   3.560   7.734   1.169
 2442W        W 3439   7.490   5.391   5.845
 2443W        W 3440   2.977   3.056   5.062
 2444W        W 3441   0.345   7.358   4.519
 2445W        W 3442   4.143   5.910   4.855
 2446W        W 3443   6.805   5.598   0.408
 2447W        W 3444   7.418   0.932   6.603
 2448W        W 3445   6.976   0.385   5.312
 2449W        W 3446   2.811   0.996   3.451
 2450W        W 3447   1.947   3.795   2.443
 2451W        W 3448   0.812   1.661   2.568
 2452W        W 3449   4.363   5.885   3.957
 2453W        W 3450   3.529   3.205   7.190
 2454W        W 3451   4.376   6.682   0.408
 2455W        W 3452   1.649   6.723   0.546
 2456W        W 3453   3.604   2.147   6.891
 2457W        W 3454   1.018   7.369   0.304
 2458W        W 3455   4.168   1.601   1.884
 2459W        W 3456   3.632   4.877   5.559
 2460W        W 3457   1.813   1.007   5.984
 2461W        W 3458   6.402   2.012   1.215
 2462W        W 3459   6.800   6.619   4.339
 2463W        W 3460   7.448   2.473   3.769
 2464W        W 3461   5.906   1.622   7.385
 2465W        W 3462   3.027   5.059   0.292
 2466W        W 3463   5.255   0.737   2.779
 2467W        W 3464   1.573   6.450   1.006
 2468W        W 3465   5.969   5.424   0.189
 2469W        W 3466   2.864   7.593   2.671
 2470W        W 3467   2.968   3.367   1.743
 2471W        W 3468   5.937   4.965   0.338
 2472W        W 3469   0.337   0.353   1.144
 2473W        W 3470   0.361   1.744   7.038
 2474W        W 3471   5.133   6.178   1.843
 2475W        W 3472   5.234   1.069   5.671
 2476W        W 3473   4.977   0.911   0.710
 2477W        W 3474   6.265   4.616   0.497
 2478W        W 3475   0.693   2.947   6.170
 2479W        W 3476   0.556   1.485   3.769
 2480W        W 3477   5.735   7.279   4.881
 2481W        W 3478   0.565   5.424   2.066
 2482W        W 3479   0.652   7.721   6.337
 2483W        W 3480   6.424   0.415   7.258
 2484W        W 3481   3.671   0.622   3.031
 2485W        W 3482   2.970   3.943   0.026
 2486W        W 3483   1.914   5.865   0.026
 2487W        W 3484   7.019   2.481   5.075
 2488W        W 3485   1.423   7.909   2.635
 2489W        W 3486   5.348   3.596   5.300
 2490W        W 3487   2.742   3.623   7.659
 2491W        W 3488   2.320   0.459   7.355
 2492W        W 3489   7.126   4.794   0.006
 2493W        W 3490   4.994   5.218   1.131
 2494W        W 3491   2.401   7.662   2.614
 2495W        W 3492   2.248   3.767   3.332
 2496W        W 3493   2.496   0.292   6.236
 2497W        W 3494   2.027   6.950   7.004
 2498W        W 3495   5.732   7.474   3.623
 2499W        W 3496   4.112   5.575   5.922
 2500W        W 3497   6.792   3.656   4.180
 2501W        W 3498   4.207   2.737   1.044
 2502W        W 3499   3.397   7.189   6.759
 2503W        W 3500   2.364   0.408   5.367
 2504W        W 3501   1.558   7.899   6.714
 2505W        W 3502   4.589   4.633   0.505
 2506W        W 3503   7.105   2.168   5.639
 2507W        W 3504   6.606   0.809   6.475
 2508W        W 3505   3.922   1.346   3.645
 2509W        W 3506   3.593   1.170   1.919
 2510W        W 3507   2.097   5.184   6.334
 2511W        W 3508   5.229   7.800   4.676
 2512W        W 3509   3.425   4.146   7.431
 2513W        W 3510   4.772   6.931   2.233
 2514W        W 3511   4.193   1.589   4.560
 2515W        W 3512   4.607   1.358   4.465
 2516W        W 3513   6.422   1.648   5.957
 2517W        W 3514   0.075   6.754   4.087
 2518W        W 3515   5.718   2.274   3.918
 2519W        W 3516   1.393   2.884   0.928
 2520W        W 3517   3.058   2.220   2.966
 2521W        W 3518   0.782   4.666   5.703
 2522W        W 3519   5.589   7.199   3.195
 2523W        W 3520   5.912   6.695   5.431
 2524W        W 3521   6.210   6.125   0.825
 2525W        W 3522   4.046   4.061   1.727
 2526W        W 3523   3.890   2.319   1.078
 2527W        W 3524   5.753   5.306   4.319
 2528W        W 3525   0.509   3.820   0.246
 2529W        W 3526   0.234   1.455   4.714
 2530W        W 3527   5.437   7.804   5.547
 2531W        W 3528   4.380   7.188   1.236
 2532W        W 3529   2.671   1.025   0.761
 2533W        W 3530   1.379   4.820   5.301
 2534W        W 3531   0.570   7.420   0.092
 2535W        W 3532   5.702   2.681   2.897
 2536W        W 3533   0.181   7.594   3.207
 2537W        W 3534   0.159   5.154   6.984
 2538W        W 3535   5.437   1.667   5.133
 2539W        W 3536   1.156   7.763   4.077
 2540W        W 3537   2.675   1.722   1.055
 2541W        W 3538   6.451   5.179   0.423
 2542W        W 3539   1.880   6.525   1.425
 2543W        W 3540   0.325   7.020   6.262
 2544W        W 3541   4.205   2.435   0.133
 2545W        W 3542   3.630   3.316   3.366
 2546W        W 3543   2.681   5.839   6.015
 2547W        W 3544   1.880   3.799   7.031
 2548W        W 3545   1.731   4.155   1.392
 2549W        W 3546   2.871   3.415   5.350
 2550W        W 3547   0.198   5.841   5.600
 2551W        W 3548   6.189   2.807   3.303
 2552W        W 3549   2.589   2.262   0.769
 2553W        W 3550   0.083   7.937   2.788
 2554W        W 3551   1.427   7.550   7.745
 2555W        W 3552   7.312   3.500   2.806
 2556W        W 3553   2.446   2.640   0.448
 2557W        W 3554   2.270   7.639   3.887
 2558W        W 3555   0.281   1.747   3.311
 2559W        W 3556   5.383   6.156   3.094
 2560W        W 3557   3.305   6.341   6.872
 2561W        W 3558   5.276   7.496   3.361
 2562W        W 3559   2.683   4.563   2.004
 2563W        W 3560   6.428   5.386   6.414
 2564W        W 3561   4.001   7.482   5.566
 2565W        W 3562   1.161   0.759   2.502
 2566W        W 3563   4.167   6.508   5.791
 2567W        W 3564   2.758   4.150   3.712
 2568W        W 3565   0.785   0.665   6.697
 2569W        W 3566   3.474   1.128   1.159
 2570W        W 3567   1.960   1.695   1.705
 2571W        W 3568   7.498   5.787   5.313
 2572W        W 3569   3.669   1.598   1.698
 2573W        W 3570   6.566   6.957   1.403
 2574W        W 3571   5.279   4.300   5.811
 2575W        W 3572   2.570   5.866   3.061
 2576W        W 3573   3.566   6.301   0.415
 2577W        W 3574   1.692   2.810   0.502
 2578W        W 3575   3.939   6.346   6.518
 2579W        W 3576   5.311   5.943   1.339
 2580W        W 3577   4.580   5.062   2.598
 2581W        W 3578   4.269   3.752   4.336
 2582W        W 3579   2.388   1.718   5.486
 2583W        W 3580   4.038   4.363   2.595
 2584W        W 3581   1.036   2.117   4.309
 2585W        W 3582   1.007   4.147   7.490
 2586W        W 3583   2.507   5.349   1.600
 2587W        W 3584   5.623   3.214   3.584
 2588W        W 3585   4.043   7.312   6.964
 2589W        W 3586   2.690   0.122   7.272
 2590W        W 3587   5.972   0.220   7.443
 2591W        W 3588   7.751   4.845   6.838
 2592W        W 3589   3.636   5.054   7.798
 2593W        W 3590   2.852   5.828   2.154
 2594W        W 3591   1.063   1.896   1.708
 2595W        W 3592   2.323   3.788   5.739
 2596W        W 3593   3.314   3.757   3.485
 2597W        W 3594   3.992   2.676   3.703
 2598W        W 3595   7.847   6.382   4.938
 2599W        W 3596   7.272   5.695   3.401
 2600W        W 3597   1.751   3.885   6.434
 2601W        W 3598   1.524   2.580   4.421
 2602W        W 3599   6.971   1.765   6.738
 2603W        W 3600   3.514   5.623   2.727
 2604W        W 3601   7.586   2.940   2.819
 2605W        W 3602   2.941   3.943   5.629
 2606W        W 3603   6.937   2.368   2.131
 2607W        W 3604   2.582   6.225   0.985
 2608W        W 3605   5.544   1.766   3.837
 2609W        W 3606   6.619   1.096   7.711
 2610W        W 3607   2.931   3.060   2.293
 2611W        W 3608   2.894   2.756   0.642
 2612W        W 3609   4.837   1.539   3.198
 2613W        W 3610   6.963   6.473   7.093
 2614W        W 3611   4.966   7.599   3.900
 2615W        W 3612   2.811   7.005   5.059
 2616W        W 3613   0.876   7.198   7.053
 2617W        W 3614   5.157   6.276   1.024
 2618W        W 3615   6.893   5.071   5.193
 2619W        W 3616   5.243   7.000   3.580
 2620W        W 3617   7.417   4.170   5.291
 2621W        W 3618   6.913   4.042   7.070
 2622W        W 3619   7.155   6.183   7.506
 2623W        W 3620   7.773   5.127   4.943
 2624W        W 3621   6.335   5.809   0.360
 2625W        W 3622   4.672   6.359   0.959
 2626W        W 3623   3.535   5.832   7.183
 2627W        W 3624   2.436   1.738   1.533
 2628W        W 3625   3.260   4.584   3.289
 2629W        W 3626   6.609   2.451   5.908
 2630W        W 3627   0.387   3.370   7.539
 2631W        W 3628   1.338   5.068   4.095
 2632W        W 3629   4.436   4.952   4.700
 2633W        W 3630   1.404   2.020   2.185
 2634W        W 3631   5.132   2.349   6.064
 2635W        W 3632   0.081   4.084   7.220
 2636W        W 3633   2.168   1.323   7.575
 2637W        W 3634   1.284   0.581   5.247
 2638W        W 3635   3.938   2.545   4.599
 2639W        W 3636   1.451   5.430   3.326
 2640W        W 3637   3.305   6.248   3.908
 2641W        W 3638   5.047   1.882   4.796
 2642W        W 3639   7.404   4.451   6.934
 2643W        W 3640   2.539   1.081   3.998
 2644W        W 3641   2.725   4.810   0.696
 2645W        W 3642   1.779   5.837   7.500
 2646W        W 3643   5.602   1.385   0.253
 2647W        W 3644   5.429   3.434   7.437
 2648W        W 3645   6.054   0.955   2.444
 2649W        W 3646   0.097   5.353   7.504
 2650W        W 3647   6.928   6.967   5.344
 2651W        W 3648   1.612   1.833   0.224
 2652W        W 3649   4.544   4.298   2.798
 2653W        W 3650   3.662   7.024   7.143
 2654W        W 3651   7.754   2.915   4.730
 2655W        W 3652   1.880   7.500   6.780
 2656W        W 3653   1.968   1.488   6.143
 2657W        W 3654   3.397   2.205   7.298
 2658W        W 3655   2.638   5.580   2.656
 2659W        W 3656   4.848   0.703   3.729
 2660W        W 3657   3.136   6.729   2.686
 2661W        W 3658   0.843   4.232   3.082
 2662W        W 3659   0.961   3.154   7.178
 2663W        W 3660   6.508   3.033   1.689
 2664W        W 3661   5.181   0.446   6.438
 2665W        W 3662   4.795   2.756   5.034
 2666W        W 3663   5.938   5.882   3.728
 2667W        W 3664   3.253   7.249   7.232
 2668W        W 3665   3.636   7.107   4.286
 2669W        W 3666   2.627   2.178   0.225
 2670W        W 3667   1.382   2.455   5.771
 2671W        W 3668   5.668   0.645   2.311
 2672W        W 3669   7.350   7.728   2.054
 2673W        W 3670   1.239   2.793   6.385
 2674W        W 3671   6.603   2.841   0.006
 2675W        W 3672   0.430   5.011   7.394
 2676W        W 3673   0.116   2.283   0.522
 2677W        W 3674   0.863   5.963   2.829
 2678W        W 3675   7.716   4.485   2.925
 2679W        W 3676   3.848   3.998   2.857
 2680W        W 3677   3.340   2.351   1.299
 2681W        W 3678   6.099   2.473   1.796
 2682W        W 3679   7.255   5.264   7.623
 2683W        W 3680   5.504   6.736   7.705
 2684W        W 3681   7.401   2.665   2.003
 2685W        W 3682   4.008   3.318   0.342
 2686W        W 3683   0.901   0.212   2.792
 2687W        W 3684   3.132   4.363   5.842
 2688W        W 3685   0.499   4.755   1.322
 2689W        W 3686   5.062   5.024   3.872
 2690W        W 3687   0.352   3.961   6.317
 2691W        W 3688   4.134   6.265   2.040
 2692W        W 3689   4.965   1.280   1.954
 2693W        W 3690   3.070   7.349   3.021
 2694W        W 3691   5.671   5.060   2.273
 2695W        W 3692   4.417   5.805   3.064
 2696W        W 3693   0.969   1.205   2.800
 2697W        W 3694   0.752   5.058   0.935
 2698W        W 3695   3.207   2.276   4.889
 2699W        W 3696   4.385   6.437   5.180
 2700W        W 3697   7.356   5.329   4.073
 2701W        W 3698   4.171   6.358   1.576
 2702W        W 3699   5.206   5.593   5.697
 2703W        W 3700   0.825   0.879   2.137
 2704W        W 3701   3.461   1.513   3.831
 2705W        W 3702   7.386   1.230   2.345
 2706W        W 3703   0.189   2.819   5.303
 2707W        W 3704   1.185   6.849   3.728
 2708W        W 3705   1.055   2.595   4.830
 2709W        W 3706   1.461   1.022   3.999
 2710W        W 3707   5.537   3.055   4.506
 2711W        W 3708   2.762   6.512   1.723
 2712W        W 3709   1.038   2.119   2.606
 2713W        W 3710   4.810   3.757   3.169
 2714W        W 3711   1.083   5.656   5.157
 2715W        W 3712   4.510   6.921   4.274
 2716W        W 3713   2.196   0.491   2.292
 2717W        W 3714   3.878   4.063   2.239
 2718W        W 3715   4.292   3.186   5.500
 2719W        W 3716   0.762   6.766   6.653
 2720W        W 3717   7.490   3.208   7.014
 2721W        W 3718   5.611   6.297   3.644
 2722W        W 3719   4.681   5.141   7.481
 2723W        W 3720   6.710   6.103   0.598
 2724W        W 3721   4.766   5.849   5.820
 2725W        W 3722   1.903   0.933   3.265
 2726W        W 3723   6.676   2.153   7.067
 2727W        W 3724   0.618   7.271   2.359
 2728W        W 3725   2.197   2.656   1.953
 2729W        W 3726   6.139   4.093   3.673
 2730W        W 3727   7.397   1.834   5.380
 2731W        W 3728   5.077   6.977   7.837
 2732W        W 3729   5.399   2.034   2.209
 2733W        W 3730   0.097   1.645   2.686
 2734W        W 3731   1.755   2.388   2.059
 2735W        W 3732   7.627   5.361   6.743
 2736W        W 3733   6.924   3.067   7.126
 2737W        W 3734   3.113   4.473   1.188
 2738W        W 3735   0.923   3.950   6.474
 2739W        W 3736   6.915   2.815   1.792
 2740W        W 3737   2.529   0.223   1.072
 2741W        W 3738   2.588   6.705   3.512
 2742W        W 3739   4.226   4.744   6.801
 2743W        W 3740   6.264   4.465   6.034
 2744W        W 3741   6.873   1.063   0.166
 2745W        W 3742   1.471   7.468   0.395
 2746W        W 3743   5.913   3.291   4.130
 2747W        W 3744   4.417   7.592   1.710
 2748W        W 3745   3.628   7.147   7.756
 2749W        W 3746   4.921   4.007   5.106
 2750W        W 3747   0.275   5.333   4.146
 2751W        W 3748   1.994   4.544   1.703
 2752W        W 3749   2.027   1.735   7.303
 2753W        W 3750   6.999   5.985   7.067
 2754W        W 3751   1.845   6.662   7.885
 2755W        W 3752   6.505   4.558   6.465
 2756W        W 3753   1.938   6.318   0.345
 2757W        W 3754   3.143   5.886   6.904
 2758W        W 3755   3.971   3.809   6.387
 2759W        W 3756   6.866   6.457   0.176
 2760W        W 3757   5.227   6.506   2.741
 2761W        W 3758   7.761   5.808   5.718
 2762W        W 3759   2.470   7.346   3.011
 2763W        W 3760   2.774   0.661   1.141
 2764W        W 3761   1.544   1.318   6.401
 2765W        W 3762   4.647   1.710   2.690
 2766W        W 3763   1.334   1.755   3.481
 2767W        W 3764   6.828   7.374   1.374
 2768W        W 3765   7.032   0.145   7.198
 2769W        W 3766   5.015   4.413   1.647
 2770W        W 3767   2.377   7.658   3.376
 2771W        W 3768   6.726   5.555   2.871
 2772W        W 3769   4.227   7.814   2.319
 2773W        W 3770   0.531   2.883   2.695
 2774W        W 3771   2.778   1.518   2.149
 2775W        W 3772   3.114   0.284   1.877
 2776W        W 3773   6.688   4.732   0.235
 2777W        W 3774   1.455   7.857   0.155
 2778W        W 3775   1.257   7.387   3.048
 2779W        W 3776   0.682   6.778   0.893
 2780W        W 3777   4.266   1.732   7.505
 2781W        W 3778   0.761   6.207   5.806
 2782W        W 3779   3.093   5.717   6.377
 2783W        W 3780   1.941   2.051   5.285
 2784W        W 3781   2.812   0.644   6.459
 2785W        W 3782   3.022   2.365   1.678
 2786W        W 3783   1.236   2.223   0.976
 2787W        W 3784   0.268   6.081   1.350
 2788W        W 3785   4.780   2.316   4.770
 2789W        W 3786   3.384   0.432   5.697
 2790W        W 3787   7.054   2.484   6.316
 2791W        W 3788   5.241   7.376   6.419
 2792W        W 3789   7.014   4.872   5.627
 2793W        W 3790   7.304   7.566   5.508
 2794W        W 3791   5.210   6.529   3.447
 2795W        W 3792   2.503   3.328   4.440
 2796W        W 3793   4.221   4.088   4.778
 2797W        W 3794   5.496   6.863   5.721
 2798W        W 3795   1.265   6.610   6.551
 2799W        W 3796   2.670   1.308   1.681
 2800W        W 3797   7.995   4.407   0.012
 2801W        W 3798   4.557   6.856   5.957
 2802W        W 3799   3.857   5.043   7.024
 2803W        W 3800   2.349   3.674   6.796
 2804W        W 3801   1.563   2.120   1.699
 2805W        W 3802   1.312   3.725   6.570
 2806W        W 3803   0.733   4.972   4.744
 2807W        W 3804   6.109   1.360   2.777
 2808W        W 3805   5.725   5.373   5.069
 2809W        W 3806   2.069   5.553   3.951
 2810W        W 3807   1.171   3.364   5.533
 2811W        W 3808   7.431   1.347   7.389
 2812W        W 3809   2.386   1.780   2.018
 2813W        W 3810   2.782   3.308   4.014
 2814W        W 3811   5.130   1.191   1.112
 2815W        W 3812   3.890   6.814   6.146
 2816W        W 3813   5.211   7.900   6.282
 2817W        W 3814   5.116   0.269   2.912
 2818W        W 3815   0.544   5.485   5.421
 2819W        W 3816   4.003   5.369   0.467
 2820W        W 3817   3.452   6.677   6.000
 2821W        W 3818   5.389   0.482   1.891
 2822W        W 3819   5.394   3.290   6.177
 2823W        W 3820   7.941   6.055   5.316
 2824W        W 3821   2.360   6.946   4.741
 2825W        W 3822   2.878   4.314   0.739
 2826W        W 3823   6.525   1.137   3.432
 2827W        W 3824   1.075   6.621   1.856
 2828W        W 3825   0.939   4.389   0.443
 2829W        W 3826   4.791   4.159   7.194
 2830W        W 3827   5.113   3.858   7.496
 2831W        W 3828   3.123   7.930   0.926
 2832W        W 3829   7.689   6.814   0.833
 2833W        W 3830   6.705   0.463   6.850
 2834W        W 3831   7.997   0.619   5.394
 2835W        W 3832   0.723   0.353   7.704
 2836W        W 3833   2.138   5.733   4.407
 2837W        W 3834   6.503   0.341   6.225
 2838W        W 3835   3.811   7.291   6.022
 2839W        W 3836   6.703   6.035   2.894
 2840W        W 3837   5.022   0.460   7.970
 2841W        W 3838   3.435   4.136   1.398
 2842W        W 3839   3.846   3.499   2.137
 2843W        W 3840   3.785   3.769   4.648
 2844W        W 3841   1.686   3.701   0.635
 2845W        W 3842   5.675   0.338   0.975
 2846W        W 3843   5.453   2.644   4.223
 2847W        W 3844   3.707   1.731   7.446
 2848W        W 3845   4.641   0.832   4.653
 2849W        W 3846   5.799   1.516   6.729
 2850W        W 3847   2.385   2.815   7.083
 2851W        W 3848   1.796   7.496   0.951
 2852W        W 3849   5.885   2.144   1.156
 2853W        W 3850   7.584   6.276   1.574
 2854W        W 3851   2.254   3.860   6.311
 2855W        W 3852   6.126   0.209   3.525
 2856W        W 3853   5.687   3.382   2.159
 2857W        W 3854   4.016   6.331   0.237
 2858W        W 3855   5.477   1.529   4.653
 2859W        W 3856   4.801   5.121   1.656
 2860W        W 3857   6.373   4.905   7.174
 2861W        W 3858   1.493   0.848   2.986
 2862W        W 3859   2.774   5.314   6.002
 2863W        W 3860   7.739   7.456   0.833
 2864W        W 3861   0.761   0.940   5.366
 2865W        W 3862   0.982   3.436   3.674
 2866W        W 3863   3.916   3.835   3.337
 2867W        W 3864   6.796   2.900   6.122
 2868W        W 3865   7.473   1.552   3.920
 2869W        W 3866   6.432   6.538   1.062
 2870W        W 3867   0.941   3.356   0.176
 2871W        W 3868   2.667   6.644   2.569
 2872W        W 3869   4.850   1.182   3.539
 2873W        W 3870   0.250   1.530   1.152
 2874W        W 3871   1.844   4.701   2.684
 2875W        W 3872   4.637   7.129   1.814
 2876W        W 3873   4.674   3.536   2.702
 2877W        W 3874   0.630   6.261   1.041
 2878W        W 3875   5.158   3.024   3.637
 2879W        W 3876   7.152   6.783   3.943
 2880W        W 3877   2.049   2.758   4.720
 2881W        W 3878   2.636   7.239   3.517
 2882W        W 3879   5.943   0.509   3.955
 2883W        W 3880   0.722   6.187   4.321
 2884W        W 3881   7.444   6.524   6.521
 2885W        W 3882   2.121   2.068   2.654
 2886W        W 3883   2.067   6.578   5.473
 2887W        W 3884   7.135   2.193   3.270
 2888W        W 3885   0.387   2.810   1.919
 2889W        W 3886   7.310   4.114   7.364
 2890W        W 3887   6.324   0.187   4.276
 2891W        W 3888   1.866   7.262   3.833
 2892W        W 3889   4.173   2.329   6.114
 2893W        W 3890   7.849   5.118   0.833
 2894W        W 3891   6.852   3.196   4.480
 2895W        W 3892   6.506   5.397   6.891
 2896W        W 3893   7.929   3.969   3.127
 2897W        W 3894   6.516   0.948   7.197
 2898W        W 3895   2.589   0.126   4.024
 2899W        W 3896   3.821   6.636   1.848
 2900W        W 3897   7.194   2.185   2.763
 2901W        W 3898   5.449   3.143   4.019
 2902W        W 3899   3.265   4.502   4.341
 2903W        W 3900   5.207   5.080   7.280
 2904W        W 3901   5.853   0.378   1.704
 2905W        W 3902   7.176   4.189   5.776
 2906W        W 3903   2.282   7.631   6.474
 2907W        W 3904   3.824   4.257   4.527
 2908W        W 3905   4.083   6.909   0.739
 2909W        W 3906   6.551   6.337   3.385
 2910W        W 3907   4.449   3.025   0.132
 2911W        W 3908   2.389   6.198   5.755
 2912W        W 3909   7.035   2.623   3.040
 2913W        W 3910   7.060   0.992   6.108
 2914W        W 3911   2.876   2.267   4.482
 2915W        W 3912   5.536   1.543   0.854
 2916W        W 3913   7.716   4.618   6.419
 2917W        W 3914   0.216   2.031   1.173
 2918W        W 3915   1.534   6.012   6.275
 2919W        W 3916   0.617   3.578   1.046
 2920W        W 3917   5.772   2.082   7.512
 2921W        W 3918   7.672   3.288   5.198
 2922W        W 3919   3.922   3.847   5.160
 2923W        W 3920   6.164   0.806   7.529
 2924W        W 3921   6.859   6.702   3.503
 2925W        W 3922   4.176   1.545   6.597
 2926W        W 3923   3.814   1.110   4.758
 2927W        W 3924   7.371   1.735   2.626
 2928W        W 3925   2.099   4.948   1.359
 2929W        W 3926   1.979   2.925   5.196
 2930W        W 3927   5.512   3.226   5.652
 2931W        W 3928   3.567   2.859   4.372
 2932W        W 3929   4.079   2.097   6.622
 2933W        W 3930   3.885   4.587   3.527
 2934W        W 3931   1.239   6.828   0.948
 2935W        W 3932   5.523   0.151   3.237
 2936W        W 3933   3.007   3.151   4.463
 2937W        W 3934   0.317   2.426   7.364
 2938W        W 3935   0.113   2.912   1.570
 2939W        W 3936   6.683   3.322   2.064
 2940W        W 3937   4.895   6.566   0.445
 2941W        W 3938   4.180   1.537   4.027
 2942W        W 3939   0.468   0.338   3.131
 2943W        W 3940   1.134   0.975   3.303
 2944W        W 3941   2.335   1.946   4.406
 2945W        W 3942   3.106   0.945   3.996
 2946W        W 3943   6.253   7.750   4.413
 2947W        W 3944   6.458   6.458   7.333
 2948W        W 3945   5.521   0.287   5.946
 2949W        W 3946   1.186   5.948   7.210
 2950W        W 3947   4.661   3.696   6.931
 2951W        W 3948   1.514   2.009   6.748
 2952W        W 3949   5.649   6.180   1.642
 2953W        W 3950   5.439   6.812   5.209
 2954W        W 3951   0.477   4.680   7.818
 2955W        W 3952   0.556   5.789   2.392
 2956W        W 3953   6.272   7.621   7.019
 2957W        W 3954   2.908   0.750   2.849
 2958W        W 3955   6.942   4.132   2.518
 2959W        W 3956   6.941   1.260   5.189
 2960W        W 3957   0.193   4.663   2.090
 2961W        W 3958   6.306   3.879   4.150
 2962W        W 3959   4.621   4.786   3.974
 2963W        W 3960   7.592   0.064   3.783
 2964W        W 3961   5.298   5.955   6.066
 2965W        W 3962   2.720   4.298   5.305
 2966W        W 3963   3.233   1.042   4.825
 2967W        W 3964   6.790   0.918   3.051
 2968W        W 3965   7.971   4.394   3.352
 2969W        W 3966   7.875   5.553   3.502
 2970W        W 3967   4.836   0.853   6.407
 2971W        W 3968   7.211   5.433   1.623
 2972W        W 3969   3.147   5.745   5.887
 2973W        W 3970   1.844   2.214   4.828
 2974W        W 3971   3.231   0.502   3.725
 2975W        W 3972   3.846   1.435   2.737
 2976W        W 3973   5.974   6.562   0.828
 2977W        W 3974   1.681   2.878   2.678
 2978W        W 3975   3.556   5.427   6.785
 2979W        W 3976   7.958   3.791   7.836
 2980W        W 3977   3.629   0.469   7.455
 2981W        W 3978   1.492   4.113   0.441
 2982W        W 3979   4.536   6.672   1.547
 2983W        W 3980   5.346   3.719   1.866
 2984W        W 3981   6.950   4.984   4.108
 2985W        W 3982   2.957   1.383   7.034
 2986W        W 3983   7.131   6.392   4.615
 2987W        W 3984   6.548   6.166   1.709
 2988W        W 3985   0.735   3.389   2.605
 2989W        W 3986   6.677   0.579   0.207
 2990W        W 3987   7.471   6.588   2.948
 2991W        W 3988   6.740   5.774   6.680
 2992W        W 3989   1.848   4.244   7.305
 2993W        W 3990   0.741   7.139   2.825
 2994W        W 3991   7.347   5.199   5.365
 2995W        W 3992   6.027   5.222   5.402
 2996W        W 3993   0.199   4.902   2.766
 2997W        W 3994   0.103   1.926   5.540
 2998W        W 3995   4.403   5.594   6.848
 2999W        W 3996   1.552   3.619   4.057
 3000W        W 3997   3.051   6.778   6.892
 3001W        W 3998   1.999   6.453   4.619
 3002W        W 3999   5.342   1.582   2.248
 3003W        W 4000   7.672   7.282   0.382
 3004W        W 4001   1.700   0.416   3.184
 3005W        W 4002   2.213   7.194   0.983
 3006W        W 4003   6.255   0.468   0.821
 3007W        W 4004   6.146   2.516   3.667
 3008W        W 4005   0.570   4.590   2.863
 3009W        W 4006   3.708   5.585   0.030
 3010W        W 4007   5.793   5.722   6.116
 3011W        W 4008   7.382   5.652   7.936
 3012W        W 4009   4.357   3.115   6.390
 3013W        W 4010   1.294   7.133   2.618
 3014W        W 4011   7.555   5.064   6.251
 3015W        W 4012   5.725   3.392   1.641
 3016W        W 4013   5.662   0.735   5.122
 3017W        W 4014   6.843   6.020   6.234
 3018W        W 4015   3.298   2.570   5.788
 3019W        W 4016   4.334   2.648   4.820
 3020W        W 4017   6.690   1.098   1.598
 3021W        W 4018   3.062   3.244   3.540
 3022W        W 4019   0.854   0.066   3.326
 3023W        W 4020   0.322   1.238   0.690
 3024W        W 4021   0.511   5.687   3.208
 3025W        W 4022   1.297   7.142   5.489
 3026W        W 4023   7.395   1.030   4.715
 3027W        W 4024   7.669   7.724   6.275
 3028W        W 4025   0.802   6.497   3.760
 3029W        W 4026   6.560   6.379   6.363
 3030W        W 4027   3.797   1.379   0.326
 3031W        W 4028   6.368   0.883   3.857
 3032W        W 4029   6.456   0.607   3.388
 3033W        W 4030   3.737   2.173   6.263
 3034W        W 4031   7.161   5.829   5.822
 3035W        W 4032   3.023   0.525   4.222
 3036W        W 4033   0.586   1.288   5.096
 3037W        W 4034   7.395   2.613   2.506
 3038W        W 4035   1.069   6.801   5.081
 3039W        W 4036   3.610   6.196   1.519
 3040W        W 4037   0.269   3.535   4.534
 3041W        W 4038   4.395   6.037   6.675
 3042W        W 4039   7.734   4.078   4.226
 3043W        W 4040   2.917   0.717   1.827
 3044W        W 4041   7.936   0.045   3.374
 3045W        W 4042   1.687   7.264   1.384
 3046W        W 4043   6.117   7.001   4.924
 3047W        W 4044   4.820   1.380   1.488
 3048W        W 4045   5.654   5.918   6.928
 3049W        W 4046   3.329   4.732   1.585
 3050W        W 4047   5.061   1.881   6.200
 3051W        W 4048   6.287   3.901   7.209
 3052W        W 4049   5.218   7.600   6.861
 3053W        W 4050   6.414   6.968   6.282
 3054W        W 4051   2.456   2.126   3.058
 3055W        W 4052   4.299   4.938   0.303
 3056W        W 4053   4.535   3.129   1.100
 3057W        W 4054   6.696   7.099   4.926
 3058W        W 4055   5.945   4.666   5.380
 3059W        W 4056   3.115   7.387   7.729
 3060W        W 4057   1.918   2.978   6.992
 3061W        W 4058   5.071   7.037   0.369
 3062W        W 4059   7.614   2.536   4.288
 3063W        W 4060   2.879   2.641   1.273
 3064W        W 4061   5.584   6.238   2.162
 3065W        W 4062   3.604   3.791   1.787
 3066W        W 4063   5.474   0.937   0.396
 3067W        W 4064   4.891   3.539   4.947
 3068W        W 4065   2.626   5.089   2.396
 3069W        W 4066   4.911   2.512   5.450
 3070W        W 4067   2.566   3.027   0.228
 3071W        W 4068   1.639   2.667   7.350
 3072W        W 4069   1.709   2.541   5.395
 3073W        W 4070   1.482   4.089   7.696
 3074W        W 4071   7.366   2.889   4.010
 3075W        W 4072   0.833   4.579   5.175
 3076W        W 4073   0.620   4.815   3.816
 3077W        W 4074   7.425   1.828   6.828
 3078W        W 4075   5.314   5.322   3.530
 3079W        W 4076   3.620   1.601   1.189
 3080W        W 4077   3.005   1.747   0.189
 3081W        W 4078   6.544   4.202   4.525
 3082W        W 4079   6.049   3.731   6.692
 3083W        W 4080   7.040   2.248   7.471
 3084W        W 4081   2.837   2.853   1.729
 3085W        W 4082   6.252   2.164   6.140
 3086W        W 4083   5.157   2.816   2.233
 3087W        W 4084   1.168   2.728   7.465
 3088W        W 4085   2.291   0.105   0.592
 3089W        W 4086   5.155   7.009   2.498
 3090W        W 4087   5.591   5.385   7.412
 3091W        W 4088   5.689   2.749   3.395
 3092W        W 4089   0.989   7.181   5.893
 3093W        W 4090   6.030   7.377   6.199
 3094W        W 4091   3.940   7.340   2.486
 3095W        W 4092   1.952   6.073   6.014
 3096W        W 4093   3.271   4.436   5.319
 3097W        W 4094   4.662   3.089   7.772
 3098W        W 4095   6.305   3.372   2.875
 3099W        W 4096   4.055   2.844   4.184
 3100W        W 4097   3.670   7.549   7.346
 3101W        W 4098   3.107   4.155   6.390
 3102W        W 4099   4.697   4.268   4.767
 3103W        W 4100   7.077   2.092   3.833
 3104W        W 4101   4.392   3.644   4.943
 3105W        W 4102   7.484   5.038   0.358
 3106W        W 4103   2.018   1.156   6.546
 3107W        W 4104   6.581   4.574   5.619
 3108W        W 4105   0.141   1.204   3.687
 3109W        W 4106   2.468   4.585   7.133
 3110W        W 4107   6.267   2.332   7.882
 3111W        W 4108   5.195   6.807   6.129
 3112W        W 4109   1.967   3.374   7.300
 3113W        W 4110   2.384   6.654   7.205
 3114W        W 4111   3.565   6.423   2.238
 3115W        W 4112   0.673   7.302   0.692
 3116W        W 4113   2.490   3.171   5.611
 3117W        W 4114   7.359   0.249   4.208
 3118W        W 4115   6.546   1.892   0.675
 3119W        W 4116   1.656   6.815   3.614
 3120W        W 4117   2.814   5.380   0.765
 3121W        W 4118   3.941   3.366   5.051
 3122W        W 4119   6.840   0.130   1.750
 3123W        W 4120   7.356   0.399   6.885
 3124W        W 4121   3.847   1.849   3.887
 3125W        W 4122   1.709   4.198   2.667
 3126W        W 4123   2.627   0.199   2.204
 3127W        W 4124   7.965   4.383   6.936
 3128W        W 4125   4.598   7.895   6.204
 3129W        W 4126   5.238   3.845   6.036
 3130W        W 4127   6.237   5.294   4.611
 3131W        W 4128   6.464   1.507   1.426
 3132W        W 4129   0.529   2.351   0.221
 3133W        W 4130   3.222   3.049   1.437
 3134W        W 4131   1.865   7.054   5.545
 3135W        W 4132   1.870   4.466   4.112
 3136W        W 4133   2.052   2.898   0.179
 3137W        W 4134   4.787   4.708   5.009
 3138W        W 4135   2.206   2.504   5.098
 3139W        W 4136   0.199   2.664   2.385
 3140W        W 4137   4.762   3.283   6.702
 3141W        W 4138   0.011   6.640   2.133
 3142W        W 4139   0.424   4.086   2.870
 3143W        W 4140   4.348   6.071   2.605
 3144W        W 4141   7.746   4.835   3.349
 3145W        W 4142   2.374   0.800   3.608
 3146W        W 4143   0.866   5.105   7.626
 3147W        W 4144   7.648   3.556   7.534
 3148W        W 4145   4.329   6.924   2.543
 3149W        W 4146   6.581   2.494   1.553
 3150W        W 4147   4.731   5.343   5.846
 3151W        W 4148   0.201   6.891   4.609
 3152W        W 4149   7.823   6.377   6.175
 3153W        W 4150   2.260   6.919   2.093
 3154W        W 4151   1.655   6.398   5.748
 3155W        W 4152   4.495   2.886   6.830
 3156W        W 4153   6.106   5.019   0.801
 3157W        W 4154   5.124   1.674   4.270
 3158W        W 4155   4.225   0.833   5.986
 3159W        W 4156   0.754   7.033   5.499
 3160W        W 4157   1.705   6.551   6.245
 3161W        W 4158   3.506   3.556   3.897
 3162W        W 4159   4.222   5.349   7.994
 3163W        W 4160   3.798   1.987   2.012
 3164W        W 4161   2.484   0.855   1.479
 3165W        W 4162   2.493   0.891   5.441
 3166W        W 4163   1.903   4.814   6.494
 3167W        W 4164   1.995   1.598   5.111
 3168W        W 4165   7.211   6.690   6.082
 3169W        W 4166   7.024   6.258   6.679
 3170W        W 4167   5.457   1.338   7.069
 3171W        W 4168   6.236   3.846   4.679
 3172W        W 4169   0.298   7.556   0.935
 3173W        W 4170   4.997   7.370   2.187
 3174W        W 4171   3.320   5.956   4.833
 3175W        W 4172   5.305   1.714   6.755
 3176W        W 4173   5.463   5.398   0.493
 3177W        W 4174   6.839   7.016   2.689
 3178W        W 4175   7.820   0.238   1.153
 3179W        W 4176   0.391   1.970   7.560
 3180W        W 4177   0.704   3.334   5.832
 3181W        W 4178   7.118   1.325   4.286
 3182W        W 4179   7.328   3.863   2.312
 3183W        W 4180   4.550   0.363   7.039
 3184W        W 4181   0.932   1.406   5.423
 3185W        W 4182   6.257   4.506   7.463
 3186W        W 4183   6.836   0.740   3.996
 3187W        W 4184   1.736   3.761   4.586
 3188W        W 4185   5.838   1.012   6.843
 3189W        W 4186   4.542   6.351   3.727
 3190W        W 4187   0.253   3.344   5.539
 3191W        W 4188   5.395   5.350   4.708
 3192W        W 4189   1.146   1.681   6.469
 3193W        W 4190   1.109   6.546   2.791
 3194W        W 4191   2.838   6.456   7.571
 3195W        W 4192   7.641   0.391   2.676
 3196W        W 4193   0.761   4.388   6.603
 3197W        W 4194   2.032   4.469   1.172
 3198W        W 4195   5.249   6.548   4.832
 3199W        W 4196   0.823   2.017   2.145
 3200W        W 4197   6.092   0.274   1.284
 3201W        W 4198   6.921   1.503   6.044
 3202W        W 4199   2.090   6.952   1.632
 3203W        W 4200   0.868   6.791   2.487
 3204W        W 4201   6.345   4.669   4.617
 3205W        W 4202   3.035   5.330   1.266
 3206W        W 4203   3.309   3.119   2.635
 3207W        W 4204   2.782   0.521   3.309
 3208W        W 4205   5.491   2.630   6.781
 3209W        W 4206   1.843   4.437   7.851
 3210W        W 4207   0.082   3.144   2.636
 3211W        W 4208   6.792   4.912   4.668
 3212W        W 4209   5.071   3.741   6.542
 3213W        W 4210   2.142   2.488   6.770
 3214W        W 4211   1.977   7.542   3.071
 3215W        W 4212   7.326   6.667   3.432
 3216W        W 4213   4.433   2.152   2.679
 3217W        W 4214   1.671   5.985   4.610
 3218W        W 4215   3.612   2.999   2.269
 3219W        W 4216   1.716   3.265   0.226
 3220W        W 4217   6.862   1.258   6.570
 3221W        W 4218   3.182   2.071   6.049
 3222W        W 4219   5.569   3.620   3.944
 3223W        W 4220   4.315   4.419   0.137
 3224W        W 4221   7.057   2.002   0.095
 3225W        W 4222   3.079   5.876   1.077
 3226W        W 4223   6.110   6.320   6.552
 3227W        W 4224   3.480   3.995   5.478
 3228W        W 4225   0.999   3.896   0.369
 3229W        W 4226   1.253   6.368   6.075
 3230W        W 4227   4.509   2.980   2.716
 3231W        W 4228   7.290   4.529   1.008
 3232W        W 4229   5.076   2.845   2.800
 3233W        W 4230   4.312   5.065   4.226
 3234W        W 4231   2.550   3.855   5.265
 3235W        W 4232   2.838   2.910   7.734
 3236W        W 4233   5.302   4.533   3.096
 3237W        W 4234   5.460   7.517   2.475
 3238W        W 4235   5.535   5.510   2.482
 3239W        W 4236   4.717   5.174   3.466
 3240W        W 4237   7.332   1.354   6.404
 3241W        W 4238   3.270   3.087   4.014
 3242W        W 4239   5.425   1.206   4.254
 3243W        W 4240   7.820   1.633   1.681
 3244W        W 4241   3.135   4.905   0.947
 3245W        W 4242   1.015   7.828   1.460
 3246W        W 4243   1.355   5.842   7.738
 3247W        W 4244   5.179   2.493   0.708
 3248W        W 4245   4.732   0.192   6.578
 3249W        W 4246   6.118   1.947   1.675
 3250W        W 4247   5.865   0.965   1.984
   8.00000   8.00000   8.00000
