Martini system from ../2_Creating_coordinates/TYR-PHE-TYR_aa.pdb
 4351
    1TYR     BB    1   7.178  -0.068   3.453
    1TYR    SC1    2   7.312  -0.325   3.340
    1TYR    SC2    3   7.270  -0.280   3.107
    1TYR    SC3    4   7.487  -0.371   3.047
    2PHE     BB    5   7.360   0.105   3.171
    2PHE    SC1    6   7.191   0.356   3.241
    2PHE    SC2    7   7.280   0.503   3.072
    2PHE    SC3    8   7.064   0.552   3.088
    3TYR     BB    9   7.304   0.169   2.860
    3TYR    SC1   10   7.478  -0.026   2.730
    3TYR    SC2   11   7.453   0.003   2.492
    3TYR    SC3   12   7.692  -0.030   2.460
    1TYR     BB   13   0.083   5.964   7.440
    1TYR    SC1   14   0.233   6.237   7.440
    1TYR    SC2   15   0.442   6.154   7.528
    1TYR    SC3   16   0.566   6.304   7.382
    2PHE     BB   17   0.404   5.830   7.297
    2PHE    SC1   18   0.285   5.547   7.343
    2PHE    SC2   19   0.471   5.419   7.260
    2PHE    SC3   20   0.390   5.304   7.432
    3TYR     BB   21   0.683   5.717   7.413
    3TYR    SC1   22   0.862   5.941   7.361
    3TYR    SC2   23   1.081   5.879   7.440
    3TYR    SC3   24   1.184   5.984   7.247
    1TYR     BB   25   0.689   1.147   7.398
    1TYR    SC1   26   0.755   1.234   7.107
    1TYR    SC2   27   0.858   1.445   7.162
    1TYR    SC3   28   1.023   1.414   6.987
    2PHE     BB   29   1.037   1.270   7.474
    2PHE    SC1   30   0.963   1.238   7.774
    2PHE    SC2   31   1.173   1.312   7.867
    2PHE    SC3   32   1.015   1.389   8.003
    3TYR     BB   33   1.176   1.551   7.551
    3TYR    SC1   34   1.305   1.621   7.299
    3TYR    SC2   35   1.417   1.832   7.332
    3TYR    SC3   36   1.607   1.755   7.201
    1TYR     BB   37   6.194   0.408   0.373
    1TYR    SC1   38   6.402   0.241   0.532
    1TYR    SC2   39   6.596   0.313   0.410
    1TYR    SC3   40   6.728   0.317   0.614
    2PHE     BB   41   6.448   0.684   0.402
    2PHE    SC1   42   6.274   0.841   0.198
    2PHE    SC2   43   6.410   1.040   0.186
    2PHE    SC3   44   6.332   1.005  -0.019
    3TYR     BB   45   6.707   0.783   0.238
    3TYR    SC1   46   6.923   0.691   0.410
    3TYR    SC2   47   7.131   0.754   0.306
    3TYR    SC3   48   7.224   0.814   0.523
    1TYR     BB   49   2.645   6.614   4.997
    1TYR    SC1   50   2.664   6.488   4.713
    1TYR    SC2   51   2.552   6.282   4.766
    1TYR    SC3   52   2.442   6.283   4.549
    2PHE     BB   53   2.291   6.486   4.989
    2PHE    SC1   54   2.277   6.558   5.291
    2PHE    SC2   55   2.050   6.487   5.331
    2PHE    SC3   56   2.165   6.435   5.515
    3TYR     BB   57   2.139   6.211   5.061
    3TYR    SC1   58   2.086   6.103   4.796
    3TYR    SC2   59   1.971   5.894   4.824
    3TYR    SC3   60   1.825   5.945   4.636
    1TYR     BB   61   6.007   3.248   5.861
    1TYR    SC1   62   6.023   3.548   5.940
    1TYR    SC2   63   6.158   3.620   5.754
    1TYR    SC3   64   6.033   3.828   5.740
    2PHE     BB   65   5.943   3.382   5.514
    2PHE    SC1   66   5.978   3.090   5.414
    2PHE    SC2   67   5.944   3.132   5.180
    2PHE    SC3   68   6.101   2.975   5.192
    3TYR     BB   69   6.121   3.476   5.263
    3TYR    SC1   70   6.095   3.766   5.280
    3TYR    SC2   71   6.223   3.861   5.099
    3TYR    SC3   72   6.050   4.027   5.060
    1TYR     BB   73   4.277   4.142   7.858
    1TYR    SC1   74   4.382   4.170   7.566
    1TYR    SC2   75   4.615   4.134   7.616
    1TYR    SC3   76   4.643   4.007   7.411
    2PHE     BB   77   4.511   3.847   7.874
    2PHE    SC1   78   4.455   3.842   8.179
    2PHE    SC2   79   4.595   3.655   8.235
    2PHE    SC3   80   4.613   3.798   8.404
    3TYR     BB   81   4.821   3.796   7.943
    3TYR    SC1   82   4.932   3.752   7.677
    3TYR    SC2   83   5.169   3.712   7.703
    3TYR    SC3   84   5.161   3.539   7.532
    1TYR     BB   85   4.783   7.302   5.322
    1TYR    SC1   86   5.016   7.354   5.122
    1TYR    SC2   87   4.891   7.492   4.969
    1TYR    SC3   88   5.085   7.635   4.935
    2PHE     BB   89   4.715   7.670   5.280
    2PHE    SC1   90   4.450   7.619   5.435
    2PHE    SC2   91   4.366   7.845   5.430
    2PHE    SC3   92   4.189   7.713   5.407
    3TYR     BB   93   4.546   7.856   5.078
    3TYR    SC1   94   4.759   7.972   4.916
    3TYR    SC2   95   4.657   8.117   4.754
    3TYR    SC3   96   4.834   8.280   4.784
    1TYR     BB   97   3.268   5.278   7.326
    1TYR    SC1   98   3.032   5.327   7.522
    1TYR    SC2   99   3.157   5.447   7.689
    1TYR    SC3  100   2.970   5.596   7.727
    2PHE     BB  101   3.354   5.638   7.398
    2PHE    SC1  102   3.622   5.585   7.250
    2PHE    SC2  103   3.716   5.805   7.274
    2PHE    SC3  104   3.886   5.663   7.294
    3TYR     BB  105   3.523   5.799   7.620
    3TYR    SC1  106   3.311   5.913   7.783
    3TYR    SC2  107   3.414   6.040   7.959
    3TYR    SC3  108   3.246   6.214   7.937
    1TYR     BB  109   0.167   1.495   2.087
    1TYR    SC1  110   0.064   1.378   2.356
    1TYR    SC2  111   0.242   1.462   2.494
    1TYR    SC3  112   0.085   1.507   2.674
    2PHE     BB  113   0.231   1.806   2.290
    2PHE    SC1  114   0.385   1.914   2.043
    2PHE    SC2  115   0.449   2.127   2.136
    2PHE    SC3  116   0.621   2.060   2.011
    3TYR     BB  117   0.469   1.922   2.474
    3TYR    SC1  118   0.361   1.880   2.741
    3TYR    SC2  119   0.524   1.961   2.899
    3TYR    SC3  120   0.348   2.056   3.037
    1TYR     BB  121   1.888   4.407   1.132
    1TYR    SC1  122   1.615   4.546   1.185
    1TYR    SC2  123   1.586   4.467   1.410
    1TYR    SC3  124   1.490   4.680   1.476
    2PHE     BB  125   1.974   4.530   1.478
    2PHE    SC1  126   2.228   4.351   1.458
    2PHE    SC2  127   2.320   4.402   1.675
    2PHE    SC3  128   2.362   4.186   1.639
    3TYR     BB  129   1.939   4.425   1.780
    3TYR    SC1  130   1.721   4.595   1.874
    3TYR    SC2  131   1.675   4.534   2.102
    3TYR    SC3  132   1.644   4.767   2.162
    1TYR     BB  133   6.378   6.421   5.012
    1TYR    SC1  134   6.189   6.257   5.197
    1TYR    SC2  135   6.012   6.420   5.209
    1TYR    SC3  136   5.845   6.243   5.203
    2PHE     BB  137   6.062   6.496   4.820
    2PHE    SC1  138   6.230   6.705   4.662
    2PHE    SC2  139   6.055   6.785   4.518
    2PHE    SC3  140   6.179   6.962   4.568
    3TYR     BB  141   5.826   6.715   4.834
    3TYR    SC1  142   5.609   6.558   4.948
    3TYR    SC2  143   5.418   6.702   4.968
    3TYR    SC3  144   5.271   6.522   4.897
    1TYR     BB  145   4.956   2.971   0.729
    1TYR    SC1  146   5.118   2.716   0.655
    1TYR    SC2  147   4.973   2.558   0.764
    1TYR    SC3  148   5.005   2.398   0.584
    2PHE     BB  149   4.656   2.764   0.633
    2PHE    SC1  150   4.483   2.991   0.755
    2PHE    SC2  151   4.267   2.893   0.713
    2PHE    SC3  152   4.251   2.996   0.910
    3TYR     BB  153   4.460   2.554   0.779
    3TYR    SC1  154   4.554   2.301   0.668
    3TYR    SC2  155   4.421   2.126   0.764
    3TYR    SC3  156   4.413   2.010   0.551
    1TYR     BB  157   0.834   2.893   6.049
    1TYR    SC1  158   1.043   2.666   6.005
    1TYR    SC2  159   1.080   2.616   6.238
    1TYR    SC3  160   1.096   2.379   6.188
    2PHE     BB  161   0.688   2.658   6.304
    2PHE    SC1  162   0.509   2.895   6.394
    2PHE    SC2  163   0.390   2.782   6.570
    2PHE    SC3  164   0.423   2.990   6.642
    3TYR     BB  165   0.734   2.591   6.616
    3TYR    SC1  166   0.877   2.338   6.600
    3TYR    SC2  167   0.924   2.266   6.825
    3TYR    SC3  168   0.873   2.036   6.766
    1TYR     BB  169   2.451   3.383   6.537
    1TYR    SC1  170   2.624   3.602   6.401
    1TYR    SC2  171   2.490   3.791   6.467
    1TYR    SC3  172   2.689   3.925   6.502
    2PHE     BB  173   2.442   3.624   6.827
    2PHE    SC1  174   2.225   3.438   6.951
    2PHE    SC2  175   2.187   3.564   7.153
    2PHE    SC3  176   1.989   3.484   7.091
    3TYR     BB  177   2.261   3.875   6.919
    3TYR    SC1  178   2.439   4.098   6.859
    3TYR    SC2  179   2.324   4.300   6.919
    3TYR    SC3  180   2.529   4.394   7.009
    1TYR     BB  181   0.011   7.746   1.885
    1TYR    SC1  182  -0.092   8.032   1.819
    1TYR    SC2  183   0.035   8.063   1.617
    1TYR    SC3  184  -0.151   8.179   1.513
    2PHE     BB  185  -0.041   7.683   1.517
    2PHE    SC1  186   0.110   7.415   1.560
    2PHE    SC2  187   0.100   7.336   1.333
    2PHE    SC3  188   0.299   7.274   1.412
    3TYR     BB  189   0.129   7.721   1.246
    3TYR    SC1  190  -0.000   7.955   1.130
    3TYR    SC2  191   0.112   8.004   0.923
    3TYR    SC3  192  -0.100   8.057   0.817
    1TYR     BB  193   3.401   0.499   7.389
    1TYR    SC1  194   3.639   0.615   7.227
    1TYR    SC2  195   3.612   0.844   7.295
    1TYR    SC3  196   3.853   0.874   7.304
    2PHE     BB  197   3.532   0.719   7.666
    2PHE    SC1  198   3.269   0.652   7.819
    2PHE    SC2  199   3.313   0.783   8.016
    2PHE    SC3  200   3.095   0.801   7.977
    3TYR     BB  201   3.495   1.025   7.761
    3TYR    SC1  202   3.746   1.143   7.673
    3TYR    SC2  203   3.742   1.376   7.733
    3TYR    SC3  204   3.975   1.367   7.798
    1TYR     BB  205   3.126   2.336   6.013
    1TYR    SC1  206   3.237   2.563   6.195
    1TYR    SC2  207   3.460   2.566   6.105
    1TYR    SC3  208   3.467   2.808   6.124
    2PHE     BB  209   3.307   2.521   5.738
    2PHE    SC1  210   3.250   2.273   5.559
    2PHE    SC2  211   3.357   2.353   5.358
    2PHE    SC3  212   3.397   2.134   5.368
    3TYR     BB  213   3.605   2.524   5.615
    3TYR    SC1  214   3.709   2.774   5.724
    3TYR    SC2  215   3.935   2.799   5.645
    3TYR    SC3  216   3.900   3.037   5.611
    1TYR     BB  217   6.981   2.342   2.967
    1TYR    SC1  218   7.276   2.303   2.876
    1TYR    SC2  219   7.230   2.159   2.689
    1TYR    SC3  220   7.405   2.266   2.559
    2PHE     BB  221   6.913   2.385   2.599
    2PHE    SC1  222   6.611   2.371   2.671
    2PHE    SC2  223   6.523   2.395   2.448
    2PHE    SC3  224   6.389   2.251   2.553
    3TYR     BB  225   6.849   2.193   2.348
    3TYR    SC1  226   7.104   2.196   2.207
    3TYR    SC2  227   7.081   2.056   2.012
    3TYR    SC3  228   7.210   2.214   1.880
    1TYR     BB  229   6.484   5.604   8.401
    1TYR    SC1  230   6.749   5.752   8.333
    1TYR    SC2  231   6.778   5.660   8.112
    1TYR    SC3  232   6.861   5.873   8.031
    2PHE     BB  233   6.385   5.700   8.050
    2PHE    SC1  234   6.141   5.511   8.087
    2PHE    SC2  235   6.042   5.543   7.870
    2PHE    SC3  236   6.011   5.328   7.921
    3TYR     BB  237   6.419   5.577   7.754
    3TYR    SC1  238   6.626   5.751   7.644
    3TYR    SC2  239   6.670   5.677   7.419
    3TYR    SC3  240   6.689   5.907   7.344
    1TYR     BB  241   1.517   6.728   3.084
    1TYR    SC1  242   1.328   6.966   3.153
    1TYR    SC2  243   1.213   6.859   3.335
    1TYR    SC3  244   1.207   7.068   3.458
    2PHE     BB  245   1.560   6.704   3.458
    2PHE    SC1  246   1.706   6.434   3.405
    2PHE    SC2  247   1.754   6.378   3.634
    2PHE    SC3  248   1.706   6.186   3.533
    3TYR     BB  249   1.408   6.559   3.703
    3TYR    SC1  250   1.271   6.785   3.826
    3TYR    SC2  251   1.148   6.700   4.015
    3TYR    SC3  252   1.208   6.896   4.145
    1TYR     BB  253   0.539   0.693   3.671
    1TYR    SC1  254   0.583   0.455   3.867
    1TYR    SC2  255   0.682   0.583   4.045
    1TYR    SC3  256   0.566   0.448   4.210
    2PHE     BB  257   0.417   0.874   3.978
    2PHE    SC1  258   0.421   1.132   3.804
    2PHE    SC2  259   0.345   1.286   3.974
    2PHE    SC3  260   0.496   1.397   3.853
    3TYR     BB  261   0.549   1.047   4.216
    3TYR    SC1  262   0.538   0.858   4.437
    3TYR    SC2  263   0.633   0.966   4.630
    3TYR    SC3  264   0.463   0.867   4.772
    1TYR     BB  265   7.151   6.544   1.874
    1TYR    SC1  266   7.026   6.712   2.104
    1TYR    SC2  267   7.222   6.843   2.154
    1TYR    SC3  268   7.085   7.040   2.194
    2PHE     BB  269   7.294   6.874   1.762
    2PHE    SC1  270   7.467   6.711   1.562
    2PHE    SC2  271   7.584   6.896   1.461
    2PHE    SC3  272   7.731   6.729   1.474
    3TYR     BB  273   7.557   7.050   1.825
    3TYR    SC1  274   7.446   7.260   1.994
    3TYR    SC2  275   7.627   7.407   2.055
    3TYR    SC3  276   7.484   7.601   2.027
    1TYR     BB  277   1.269   1.296   1.202
    1TYR    SC1  278   1.198   0.996   1.160
    1TYR    SC2  279   1.170   0.940   1.392
    1TYR    SC3  280   0.984   0.794   1.338
    2PHE     BB  281   0.984   1.289   1.449
    2PHE    SC1  282   1.079   1.572   1.539
    2PHE    SC2  283   0.913   1.609   1.709
    2PHE    SC3  284   1.101   1.698   1.786
    3TYR     BB  285   0.945   1.217   1.761
    3TYR    SC1  286   0.814   0.957   1.743
    3TYR    SC2  287   0.774   0.881   1.968
    3TYR    SC3  288   0.557   0.795   1.903
    1TYR     BB  289   4.039   0.673   1.816
    1TYR    SC1  290   4.171   0.473   1.618
    1TYR    SC2  291   3.984   0.456   1.466
    1TYR    SC3  292   4.136   0.448   1.276
    2PHE     BB  293   3.923   0.849   1.503
    2PHE    SC1  294   3.743   1.022   1.689
    2PHE    SC2  295   3.643   1.159   1.518
    2PHE    SC3  296   3.484   1.121   1.668
    3TYR     BB  297   3.673   0.829   1.301
    3TYR    SC1  298   3.796   0.698   1.072
    3TYR    SC2  299   3.626   0.671   0.904
    3TYR    SC3  300   3.784   0.729   0.729
    1TYR     BB  301   3.001   1.205   4.577
    1TYR    SC1  302   2.940   1.004   4.807
    1TYR    SC2  303   2.735   1.107   4.882
    1TYR    SC3  304   2.637   0.889   4.923
    2PHE     BB  305   2.633   1.170   4.501
    2PHE    SC1  306   2.670   1.409   4.305
    2PHE    SC2  307   2.442   1.423   4.228
    2PHE    SC3  308   2.516   1.632   4.242
    3TYR     BB  309   2.359   1.309   4.598
    3TYR    SC1  310   2.248   1.102   4.770
    3TYR    SC2  311   2.039   1.184   4.857
    3TYR    SC3  312   1.938   0.964   4.830
    1TYR     BB  313   5.036   5.563   7.408
    1TYR    SC1  314   4.755   5.471   7.312
    1TYR    SC2  315   4.753   5.259   7.427
    1TYR    SC3  316   4.516   5.286   7.477
    2PHE     BB  317   4.920   5.436   7.744
    2PHE    SC1  318   5.214   5.474   7.839
    2PHE    SC2  319   5.184   5.398   8.066
    2PHE    SC3  320   5.385   5.325   8.002
    3TYR     BB  321   4.918   5.155   7.901
    3TYR    SC1  322   4.638   5.079   7.879
    3TYR    SC2  323   4.611   4.868   7.991
    3TYR    SC3  324   4.399   4.940   8.084
    1TYR     BB  325   6.135   3.078   0.293
    1TYR    SC1  326   5.832   3.016   0.330
    1TYR    SC2  327   5.759   3.245   0.355
    1TYR    SC3  328   5.558   3.198   0.228
    2PHE     BB  329   6.013   3.352   0.065
    2PHE    SC1  330   6.306   3.456   0.064
    2PHE    SC2  331   6.272   3.646  -0.079
    2PHE    SC3  332   6.421   3.710   0.073
    3TYR     BB  333   5.918   3.659   0.097
    3TYR    SC1  334   5.629   3.632   0.067
    3TYR    SC2  335   5.534   3.852   0.087
    3TYR    SC3  336   5.376   3.804  -0.091
    1TYR     BB  337   1.709   8.256   6.129
    1TYR    SC1  338   1.517   8.138   5.914
    1TYR    SC2  339   1.479   7.926   6.024
    1TYR    SC3  340   1.246   7.929   5.954
    2PHE     BB  341   1.458   8.117   6.374
    2PHE    SC1  342   1.667   8.182   6.596
    2PHE    SC2  343   1.539   8.102   6.784
    2PHE    SC3  344   1.751   8.050   6.826
    3TYR     BB  345   1.406   7.836   6.523
    3TYR    SC1  346   1.178   7.734   6.374
    3TYR    SC2  347   1.120   7.520   6.468
    3TYR    SC3  348   0.883   7.571   6.446
    1TYR     BB  349   5.827   2.912   3.037
    1TYR    SC1  350   5.967   3.138   2.875
    1TYR    SC2  351   6.030   3.003   2.686
    1TYR    SC3  352   5.982   3.187   2.534
    2PHE     BB  353   5.675   2.820   2.704
    2PHE    SC1  354   5.574   2.561   2.843
    2PHE    SC2  355   5.464   2.463   2.652
    2PHE    SC3  356   5.556   2.294   2.764
    3TYR     BB  357   5.757   2.638   2.451
    3TYR    SC1  358   5.832   2.841   2.256
    3TYR    SC2  359   5.898   2.727   2.055
    3TYR    SC3  360   5.786   2.895   1.920
    1TYR     BB  361   2.970   4.453   3.737
    1TYR    SC1  362   2.736   4.591   3.586
    1TYR    SC2  363   2.858   4.644   3.386
    1TYR    SC3  364   2.663   4.594   3.250
    2PHE     BB  365   3.036   4.286   3.405
    2PHE    SC1  366   3.303   4.186   3.529
    2PHE    SC2  367   3.384   4.066   3.337
    2PHE    SC3  368   3.563   4.159   3.433
    3TYR     BB  369   3.201   4.355   3.137
    3TYR    SC1  370   2.986   4.426   2.954
    3TYR    SC2  371   3.086   4.482   2.743
    3TYR    SC3  372   2.907   4.368   2.624
    1TYR     BB  373   6.013   5.586   6.020
    1TYR    SC1  374   6.201   5.427   6.210
    1TYR    SC2  375   6.156   5.556   6.409
    1TYR    SC3  376   6.165   5.354   6.544
    2PHE     BB  377   5.770   5.568   6.307
    2PHE    SC1  378   5.595   5.771   6.149
    2PHE    SC2  379   5.416   5.790   6.308
    2PHE    SC3  380   5.444   5.993   6.222
    3TYR     BB  381   5.706   5.739   6.573
    3TYR    SC1  382   5.821   5.569   6.779
    3TYR    SC2  383   5.786   5.679   6.991
    3TYR    SC3  384   5.735   5.466   7.096
    1TYR     BB  385   4.609   5.466   3.795
    1TYR    SC1  386   4.690   5.206   3.643
    1TYR    SC2  387   4.472   5.104   3.642
    1TYR    SC3  388   4.510   5.019   3.418
    2PHE     BB  389   4.311   5.462   3.565
    2PHE    SC1  390   4.193   5.688   3.743
    2PHE    SC2  391   3.986   5.718   3.624
    2PHE    SC3  392   3.938   5.745   3.840
    3TYR     BB  393   4.018   5.329   3.563
    3TYR    SC1  394   4.054   5.114   3.368
    3TYR    SC2  395   3.844   4.997   3.349
    3TYR    SC3  396   3.873   4.977   3.109
    1TYR     BB  397   7.184   7.093   3.734
    1TYR    SC1  398   7.239   7.302   3.959
    1TYR    SC2  399   7.453   7.216   4.026
    1TYR    SC3  400   7.537   7.441   4.060
    2PHE     BB  401   7.544   7.155   3.641
    2PHE    SC1  402   7.518   6.912   3.450
    2PHE    SC2  403   7.742   6.914   3.364
    2PHE    SC3  404   7.686   6.700   3.382
    3TYR     BB  405   7.832   7.040   3.728
    3TYR    SC1  406   7.934   7.257   3.893
    3TYR    SC2  407   8.152   7.193   3.972
    3TYR    SC3  408   8.234   7.419   3.938
    1TYR     BB  409   6.282   2.856   6.931
    1TYR    SC1  410   6.391   2.975   7.197
    1TYR    SC2  411   6.186   2.957   7.322
    1TYR    SC3  412   6.309   2.895   7.522
    2PHE     BB  413   6.120   2.600   7.155
    2PHE    SC1  414   5.963   2.506   6.904
    2PHE    SC2  415   5.837   2.330   7.009
    2PHE    SC3  416   5.701   2.423   6.860
    3TYR     BB  417   5.845   2.574   7.321
    3TYR    SC1  418   5.939   2.618   7.594
    3TYR    SC2  419   5.747   2.603   7.739
    3TYR    SC3  420   5.878   2.483   7.905
    1TYR     BB  421   6.435   1.047   2.948
    1TYR    SC1  422   6.156   1.180   2.912
    1TYR    SC2  423   6.099   1.190   3.146
    1TYR    SC3  424   5.994   1.406   3.114
    2PHE     BB  425   6.476   1.295   3.229
    2PHE    SC1  426   6.731   1.137   3.308
    2PHE    SC2  427   6.794   1.270   3.498
    2PHE    SC3  428   6.843   1.060   3.552
    3TYR     BB  429   6.402   1.310   3.542
    3TYR    SC1  430   6.173   1.490   3.539
    3TYR    SC2  431   6.099   1.516   3.766
    3TYR    SC3  432   6.058   1.753   3.729
    1TYR     BB  433   2.976   5.978   2.973
    1TYR    SC1  434   2.878   6.194   3.174
    1TYR    SC2  435   2.796   6.042   3.342
    1TYR    SC3  436   2.877   6.188   3.519
    2PHE     BB  437   3.116   5.809   3.280
    2PHE    SC1  438   3.170   5.563   3.098
    2PHE    SC2  439   3.266   5.420   3.266
    2PHE    SC3  440   3.146   5.288   3.133
    3TYR     BB  441   3.009   5.604   3.504
    3TYR    SC1  442   2.972   5.782   3.732
    3TYR    SC2  443   2.890   5.649   3.915
    3TYR    SC3  444   3.031   5.772   4.071
    1TYR     BB  445   4.476   8.290   0.504
    1TYR    SC1  446   4.261   8.318   0.281
    1TYR    SC2  447   4.405   8.264   0.096
    1TYR    SC3  448   4.225   8.141  -0.012
    2PHE     BB  449   4.575   7.978   0.317
    2PHE    SC1  450   4.826   7.970   0.501
    2PHE    SC2  451   4.926   7.771   0.410
    2PHE    SC3  452   5.094   7.908   0.459
    3TYR     BB  453   4.769   7.904   0.071
    3TYR    SC1  454   4.576   7.859  -0.142
    3TYR    SC2  455   4.699   7.801  -0.341
    3TYR    SC3  456   4.533   7.634  -0.399
    1TYR     BB  457   3.570   6.676   6.957
    1TYR    SC1  458   3.684   6.847   7.190
    1TYR    SC2  459   3.493   6.992   7.215
    1TYR    SC3  460   3.521   6.992   7.456
    2PHE     BB  461   3.253   6.677   7.161
    2PHE    SC1  462   3.114   6.553   6.912
    2PHE    SC2  463   2.892   6.537   7.005
    2PHE    SC3  464   2.866   6.591   6.791
    3TYR     BB  465   2.996   6.868   7.194
    3TYR    SC1  466   3.052   6.996   7.450
    3TYR    SC2  467   2.870   7.147   7.497
    3TYR    SC3  468   2.874   7.083   7.731
    1TYR     BB  469   3.606   4.308   1.973
    1TYR    SC1  470   3.471   4.560   1.849
    1TYR    SC2  471   3.572   4.542   1.631
    1TYR    SC3  472   3.365   4.616   1.527
    2PHE     BB  473   3.517   4.147   1.644
    2PHE    SC1  474   3.695   3.908   1.734
    2PHE    SC2  475   3.665   3.770   1.539
    2PHE    SC3  476   3.876   3.742   1.603
    3TYR     BB  477   3.650   4.119   1.352
    3TYR    SC1  478   3.489   4.307   1.198
    3TYR    SC2  479   3.572   4.304   0.972
    3TYR    SC3  480   3.345   4.316   0.885
    1TYR     BB  481   4.087   3.524   5.601
    1TYR    SC1  482   4.157   3.791   5.457
    1TYR    SC2  483   4.250   3.692   5.258
    1TYR    SC3  484   4.150   3.867   5.122
    2PHE     BB  485   3.958   3.419   5.263
    2PHE    SC1  486   3.934   3.133   5.381
    2PHE    SC2  487   3.849   3.024   5.183
    2PHE    SC3  488   3.986   2.878   5.281
    3TYR     BB  489   4.079   3.286   4.996
    3TYR    SC1  490   4.092   3.516   4.817
    3TYR    SC2  491   4.182   3.440   4.607
    3TYR    SC3  492   4.025   3.580   4.486
    1TYR     BB  493   5.005   3.973   4.599
    1TYR    SC1  494   4.873   3.715   4.711
    1TYR    SC2  495   5.039   3.667   4.878
    1TYR    SC3  496   4.867   3.593   5.033
    2PHE     BB  497   5.058   4.058   4.962
    2PHE    SC1  498   5.239   4.290   4.862
    2PHE    SC2  499   5.301   4.378   5.078
    2PHE    SC3  500   5.481   4.398   4.950
    3TYR     BB  501   5.281   3.997   5.187
    3TYR    SC1  502   5.146   3.797   5.349
    3TYR    SC2  503   5.296   3.734   5.527
    3TYR    SC3  504   5.111   3.727   5.684
    1TYR     BB  505   7.409   1.504   1.453
    1TYR    SC1  506   7.220   1.383   1.237
    1TYR    SC2  507   7.189   1.585   1.110
    1TYR    SC3  508   7.193   1.458   0.902
    2PHE     BB  509   7.576   1.670   1.158
    2PHE    SC1  510   7.735   1.838   1.367
    2PHE    SC2  511   7.864   1.968   1.211
    2PHE    SC3  512   7.814   2.105   1.380
    3TYR     BB  513   7.538   1.941   0.988
    3TYR    SC1  514   7.417   1.838   0.744
    3TYR    SC2  515   7.378   2.025   0.598
    3TYR    SC3  516   7.448   1.894   0.406
    1TYR     BB  517   4.217   3.495   3.022
    1TYR    SC1  518   4.066   3.240   3.115
    1TYR    SC2  519   4.244   3.149   3.249
    1TYR    SC3  520   4.085   3.072   3.415
    2PHE     BB  521   4.326   3.517   3.382
    2PHE    SC1  522   4.523   3.740   3.289
    2PHE    SC2  523   4.622   3.786   3.504
    2PHE    SC3  524   4.786   3.805   3.354
    3TYR     BB  525   4.566   3.398   3.562
    3TYR    SC1  526   4.427   3.191   3.713
    3TYR    SC2  527   4.588   3.086   3.857
    3TYR    SC3  528   4.425   3.076   4.037
    1TYR     BB  529   7.733   1.023   5.583
    1TYR    SC1  530   7.555   1.230   5.734
    1TYR    SC2  531   7.520   1.098   5.932
    1TYR    SC3  532   7.535   1.296   6.071
    2PHE     BB  533   7.903   0.982   5.917
    2PHE    SC1  534   8.048   0.738   5.792
    2PHE    SC2  535   8.177   0.674   5.986
    2PHE    SC3  536   8.117   0.484   5.887
    3TYR     BB  537   7.859   0.804   6.182
    3TYR    SC1  538   7.749   1.002   6.366
    3TYR    SC2  539   7.707   0.891   6.576
    3TYR    SC3  540   7.787   1.085   6.698
    1TYR     BB  541   0.758   4.586   4.012
    1TYR    SC1  542   0.975   4.425   4.167
    1TYR    SC2  543   0.842   4.228   4.205
    1TYR    SC3  544   1.037   4.087   4.168
    2PHE     BB  545   0.696   4.260   3.834
    2PHE    SC1  546   0.443   4.394   3.714
    2PHE    SC2  547   0.366   4.206   3.584
    2PHE    SC3  548   0.183   4.306   3.663
    3TYR     BB  549   0.518   3.996   3.882
    3TYR    SC1  550   0.721   3.805   3.968
    3TYR    SC2  551   0.610   3.595   4.011
    3TYR    SC3  552   0.794   3.473   3.910
    1TYR     BB  553   1.673   3.727   2.658
    1TYR    SC1  554   1.686   3.828   2.364
    1TYR    SC2  555   1.739   4.058   2.415
    1TYR    SC3  556   1.888   4.069   2.224
    2PHE     BB  557   1.986   3.932   2.703
    2PHE    SC1  558   1.953   3.883   3.008
    2PHE    SC2  559   2.146   4.006   3.082
    2PHE    SC3  560   1.988   4.041   3.235
    3TYR     BB  561   2.058   4.238   2.773
    3TYR    SC1  562   2.140   4.339   2.513
    3TYR    SC2  563   2.200   4.571   2.540
    3TYR    SC3  564   2.388   4.543   2.389
    1TYR     BB  565   7.288   1.682   6.807
    1TYR    SC1  566   7.081   1.881   6.687
    1TYR    SC2  567   7.208   2.082   6.726
    1TYR    SC3  568   7.133   2.174   6.514
    2PHE     BB  569   7.539   1.887   6.616
    2PHE    SC1  570   7.758   1.731   6.771
    2PHE    SC2  571   7.950   1.838   6.674
    2PHE    SC3  572   8.002   1.802   6.887
    3TYR     BB  573   7.712   2.155   6.667
    3TYR    SC1  574   7.568   2.348   6.504
    3TYR    SC2  575   7.680   2.560   6.527
    3TYR    SC3  576   7.648   2.606   6.290
    1TYR     BB  577   6.293   7.491   1.865
    1TYR    SC1  578   6.603   7.507   1.842
    1TYR    SC2  579   6.612   7.716   1.722
    1TYR    SC3  580   6.809   7.782   1.847
    2PHE     BB  581   6.319   7.856   1.955
    2PHE    SC1  582   6.009   7.865   1.928
    2PHE    SC2  583   5.979   8.099   1.980
    2PHE    SC3  584   5.830   8.051   1.823
    3TYR     BB  585   6.328   8.136   1.797
    3TYR    SC1  586   6.610   8.206   1.821
    3TYR    SC2  587   6.643   8.416   1.708
    3TYR    SC3  588   6.795   8.490   1.883
    1TYR     BB  589   1.014   7.522   0.543
    1TYR    SC1  590   1.100   7.343   0.783
    1TYR    SC2  591   1.100   7.134   0.664
    1TYR    SC3  592   1.297   7.061   0.787
    2PHE     BB  593   1.265   7.317   0.350
    2PHE    SC1  594   1.150   7.451   0.094
    2PHE    SC2  595   1.292   7.340  -0.066
    2PHE    SC3  596   1.092   7.358  -0.163
    3TYR     BB  597   1.267   7.038   0.189
    3TYR    SC1  598   1.408   6.865   0.376
    3TYR    SC2  599   1.421   6.646   0.276
    3TYR    SC3  600   1.648   6.620   0.358
    1TYR     BB  601   6.629   1.279   6.115
    1TYR    SC1  602   6.347   1.403   6.160
    1TYR    SC2  603   6.280   1.257   6.339
    1TYR    SC3  604   6.168   1.441   6.452
    2PHE     BB  605   6.649   1.281   6.491
    2PHE    SC1  606   6.906   1.109   6.460
    2PHE    SC2  607   6.956   1.084   6.694
    2PHE    SC3  608   7.010   0.890   6.598
    3TYR     BB  609   6.562   1.085   6.732
    3TYR    SC1  610   6.327   1.223   6.836
    3TYR    SC2  611   6.242   1.093   7.020
    3TYR    SC3  612   6.195   1.296   7.145
    1TYR     BB  613   2.087   2.630   1.059
    1TYR    SC1  614   1.843   2.823   1.041
    1TYR    SC2  615   1.896   2.916   0.826
    1TYR    SC3  616   1.661   2.921   0.766
    2PHE     BB  617   2.003   2.552   0.699
    2PHE    SC1  618   2.273   2.400   0.688
    2PHE    SC2  619   2.261   2.329   0.459
    2PHE    SC3  620   2.475   2.377   0.497
    3TYR     BB  621   2.074   2.675   0.410
    3TYR    SC1  622   1.826   2.810   0.342
    3TYR    SC2  623   1.855   2.912   0.126
    3TYR    SC3  624   1.629   2.849   0.062
    1TYR     BB  625  -0.176   7.980   4.352
    1TYR    SC1  626  -0.332   7.725   4.265
    1TYR    SC2  627  -0.156   7.567   4.309
    1TYR    SC3  628  -0.317   7.405   4.391
    2PHE     BB  629  -0.067   7.767   4.644
    2PHE    SC1  630   0.134   7.994   4.711
    2PHE    SC2  631   0.234   7.893   4.905
    2PHE    SC3  632   0.399   7.999   4.799
    3TYR     BB  633   0.170   7.557   4.705
    3TYR    SC1  634   0.026   7.304   4.693
    3TYR    SC2  635   0.185   7.128   4.737
    3TYR    SC3  636   0.022   7.009   4.871
    1TYR     BB  637   3.881   0.921   3.846
    1TYR    SC1  638   3.781   0.774   4.102
    1TYR    SC2  639   3.637   0.616   3.990
    1TYR    SC3  640   3.701   0.442   4.147
    2PHE     BB  641   3.915   0.573   3.705
    2PHE    SC1  642   3.964   0.709   3.430
    2PHE    SC2  643   3.991   0.508   3.300
    2PHE    SC3  644   3.883   0.652   3.169
    3TYR     BB  645   3.725   0.362   3.553
    3TYR    SC1  646   3.670   0.170   3.766
    3TYR    SC2  647   3.527  -0.000   3.675
    3TYR    SC3  648   3.648  -0.172   3.797
    1TYR     BB  649   2.579   3.498   1.849
    1TYR    SC1  650   2.446   3.463   2.128
    1TYR    SC2  651   2.303   3.278   2.069
    1TYR    SC3  652   2.341   3.176   2.286
    2PHE     BB  653   2.603   3.122   1.855
    2PHE    SC1  654   2.685   3.140   1.556
    2PHE    SC2  655   2.712   2.905   1.515
    2PHE    SC3  656   2.625   2.990   1.329
    3TYR     BB  657   2.414   2.873   1.774
    3TYR    SC1  658   2.327   2.780   2.036
    3TYR    SC2  659   2.182   2.591   2.001
    3TYR    SC3  660   2.280   2.476   2.191
    1TYR     BB  661   7.521   5.476   1.858
    1TYR    SC1  662   7.516   5.777   1.938
    1TYR    SC2  663   7.751   5.818   1.910
    1TYR    SC3  664   7.705   6.038   1.819
    2PHE     BB  665   7.747   5.592   1.580
    2PHE    SC1  666   7.803   5.292   1.524
    2PHE    SC2  667   7.955   5.321   1.340
    2PHE    SC3  668   8.031   5.147   1.456
    3TYR     BB  669   8.062   5.646   1.540
    3TYR    SC1  670   8.072   5.937   1.545
    3TYR    SC2  671   8.302   6.002   1.517
    3TYR    SC3  672   8.236   6.186   1.373
    1TYR     BB  673   5.765   7.467   5.548
    1TYR    SC1  674   5.506   7.555   5.697
    1TYR    SC2  675   5.542   7.423   5.895
    1TYR    SC3  676   5.453   7.602   6.034
    2PHE     BB  677   5.930   7.517   5.883
    2PHE    SC1  678   6.180   7.380   5.759
    2PHE    SC2  679   6.322   7.390   5.954
    2PHE    SC3  680   6.367   7.196   5.855
    3TYR     BB  681   5.980   7.341   6.148
    3TYR    SC1  682   5.785   7.456   6.331
    3TYR    SC2  683   5.803   7.339   6.540
    3TYR    SC3  684   5.774   7.546   6.663
    1TYR     BB  685   2.064   8.309   1.641
    1TYR    SC1  686   1.824   8.200   1.807
    1TYR    SC2  687   1.833   7.974   1.725
    1TYR    SC3  688   1.777   7.889   1.946
    2PHE     BB  689   2.232   7.988   1.744
    2PHE    SC1  690   2.455   8.060   1.539
    2PHE    SC2  691   2.594   7.866   1.573
    2PHE    SC3  692   2.604   7.912   1.356
    3TYR     BB  693   2.247   7.685   1.635
    3TYR    SC1  694   2.074   7.547   1.825
    3TYR    SC2  695   2.069   7.315   1.763
    3TYR    SC3  696   2.077   7.249   1.997
    1TYR     BB  697   6.594   7.627   0.826
    1TYR    SC1  698   6.833   7.594   1.022
    1TYR    SC2  699   6.744   7.406   1.144
    1TYR    SC3  700   6.966   7.308   1.160
    2PHE     BB  701   6.613   7.251   0.800
    2PHE    SC1  702   6.343   7.267   0.646
    2PHE    SC2  703   6.314   7.031   0.608
    2PHE    SC3  704   6.111   7.112   0.647
    3TYR     BB  705   6.493   6.999   0.960
    3TYR    SC1  706   6.728   6.908   1.107
    3TYR    SC2  707   6.662   6.716   1.237
    3TYR    SC3  708   6.872   6.606   1.187
    1TYR     BB  709   1.464   5.327   6.100
    1TYR    SC1  710   1.594   5.531   6.296
    1TYR    SC2  711   1.794   5.404   6.341
    1TYR    SC3  712   1.926   5.608   6.344
    2PHE     BB  713   1.811   5.302   5.955
    2PHE    SC1  714   1.706   5.060   5.792
    2PHE    SC2  715   1.911   5.007   5.676
    2PHE    SC3  716   1.814   4.812   5.722
    3TYR     BB  717   2.078   5.132   6.013
    3TYR    SC1  718   2.247   5.331   6.143
    3TYR    SC2  719   2.456   5.225   6.197
    3TYR    SC3  720   2.578   5.425   6.132
    1TYR     BB  721   3.868   2.238   6.505
    1TYR    SC1  722   3.647   2.027   6.566
    1TYR    SC2  723   3.758   1.839   6.463
    1TYR    SC3  724   3.678   1.692   6.638
    2PHE     BB  725   4.104   1.966   6.616
    2PHE    SC1  726   4.333   2.147   6.509
    2PHE    SC2  727   4.517   2.001   6.562
    2PHE    SC3  728   4.569   2.098   6.369
    3TYR     BB  729   4.255   1.716   6.480
    3TYR    SC1  730   4.098   1.492   6.580
    3TYR    SC2  731   4.193   1.290   6.490
    3TYR    SC3  732   4.160   1.176   6.702
    1TYR     BB  733   6.862   5.425   5.391
    1TYR    SC1  734   6.628   5.289   5.237
    1TYR    SC2  735   6.639   5.428   5.040
    1TYR    SC3  736   6.589   5.236   4.899
    2PHE     BB  737   7.038   5.412   5.057
    2PHE    SC1  738   7.255   5.595   5.185
    2PHE    SC2  739   7.397   5.615   4.992
    2PHE    SC3  740   7.402   5.813   5.094
    3TYR     BB  741   7.055   5.598   4.794
    3TYR    SC1  742   6.888   5.448   4.608
    3TYR    SC2  743   6.885   5.569   4.400
    3TYR    SC3  744   6.899   5.361   4.275
    1TYR     BB  745  -0.030   3.928   0.463
    1TYR    SC1  746   0.162   4.153   0.558
    1TYR    SC2  747   0.111   4.138   0.793
    1TYR    SC3  748   0.343   4.178   0.850
    2PHE     BB  749   0.105   3.740   0.761
    2PHE    SC1  750  -0.121   3.532   0.708
    2PHE    SC2  751  -0.069   3.382   0.889
    2PHE    SC3  752  -0.291   3.385   0.873
    3TYR     BB  753   0.036   3.716   1.074
    3TYR    SC1  754   0.251   3.872   1.192
    3TYR    SC2  755   0.221   3.870   1.431
    3TYR    SC3  756   0.460   3.846   1.465
    1TYR     BB  757   1.015   2.233   1.335
    1TYR    SC1  758   1.041   2.489   1.160
    1TYR    SC2  759   0.817   2.487   1.072
    1TYR    SC3  760   0.806   2.729   1.085
    2PHE     BB  761   0.681   2.381   1.433
    2PHE    SC1  762   0.620   2.107   1.567
    2PHE    SC2  763   0.400   2.159   1.648
    2PHE    SC3  764   0.393   1.946   1.584
    3TYR     BB  765   0.380   2.377   1.318
    3TYR    SC1  766   0.360   2.643   1.201
    3TYR    SC2  767   0.140   2.664   1.107
    3TYR    SC3  768   0.124   2.893   1.187
    1TYR     BB  769   0.984   3.596   7.280
    1TYR    SC1  770   1.134   3.409   7.479
    1TYR    SC2  771   1.113   3.551   7.673
    1TYR    SC3  772   1.079   3.357   7.815
    2PHE     BB  773   0.738   3.637   7.563
    2PHE    SC1  774   0.611   3.865   7.395
    2PHE    SC2  775   0.436   3.926   7.550
    2PHE    SC3  776   0.506   4.116   7.457
    3TYR     BB  777   0.707   3.828   7.821
    3TYR    SC1  778   0.783   3.645   8.036
    3TYR    SC2  779   0.767   3.767   8.243
    3TYR    SC3  780   0.673   3.573   8.354
    1TYR     BB  781   5.247   5.517   0.665
    1TYR    SC1  782   5.005   5.323   0.690
    1TYR    SC2  783   5.096   5.145   0.555
    1TYR    SC3  784   5.000   4.979   0.704
    2PHE     BB  785   5.453   5.207   0.725
    2PHE    SC1  786   5.700   5.379   0.648
    2PHE    SC2  787   5.868   5.208   0.673
    2PHE    SC3  788   5.931   5.331   0.499
    3TYR     BB  789   5.578   4.970   0.546
    3TYR    SC1  790   5.398   4.750   0.608
    3TYR    SC2  791   5.472   4.558   0.483
    3TYR    SC3  792   5.426   4.413   0.673
    1TYR     BB  793   7.823   5.941   3.163
    1TYR    SC1  794   7.704   6.187   3.014
    1TYR    SC2  795   7.882   6.212   2.854
    1TYR    SC3  796   7.722   6.271   2.681
    2PHE     BB  797   7.899   5.815   2.816
    2PHE    SC1  798   8.067   5.593   2.954
    2PHE    SC2  799   8.141   5.480   2.754
    2PHE    SC3  800   8.312   5.473   2.896
    3TYR     BB  801   8.137   5.846   2.602
    3TYR    SC1  802   8.018   6.029   2.410
    3TYR    SC2  803   8.180   6.069   2.236
    3TYR    SC3  804   8.006   6.061   2.067
    1TYR     BB  805   0.062   4.362   4.513
    1TYR    SC1  806  -0.132   4.179   4.673
    1TYR    SC2  807  -0.004   4.171   4.876
    1TYR    SC3  808  -0.207   4.179   5.009
    2PHE     BB  809   0.079   4.560   4.833
    2PHE    SC1  810   0.314   4.717   4.703
    2PHE    SC2  811   0.360   4.865   4.887
    2PHE    SC3  812   0.557   4.815   4.797
    3TYR     BB  813   0.252   4.553   5.105
    3TYR    SC1  814   0.058   4.441   5.292
    3TYR    SC2  815   0.166   4.426   5.507
    3TYR    SC3  816  -0.037   4.498   5.618
    1TYR     BB  817   3.184   5.473   1.622
    1TYR    SC1  818   3.107   5.716   1.443
    1TYR    SC2  819   3.332   5.788   1.395
    1TYR    SC3  820   3.268   5.845   1.167
    2PHE     BB  821   3.440   5.406   1.354
    2PHE    SC1  822   3.561   5.195   1.549
    2PHE    SC2  823   3.742   5.121   1.408
    2PHE    SC3  824   3.821   5.120   1.616
    3TYR     BB  825   3.742   5.499   1.289
    3TYR    SC1  826   3.698   5.686   1.070
    3TYR    SC2  827   3.913   5.771   1.003
    3TYR    SC3  828   3.848   5.759   0.769
    1TYR     BB  829   4.720   1.713   4.387
    1TYR    SC1  830   4.822   1.483   4.203
    1TYR    SC2  831   4.758   1.583   3.994
    1TYR    SC3  832   4.959   1.499   3.888
    2PHE     BB  833   4.882   1.937   4.131
    2PHE    SC1  834   4.740   2.173   4.276
    2PHE    SC2  835   4.821   2.351   4.134
    2PHE    SC3  836   4.612   2.405   4.188
    3TYR     BB  837   4.797   2.075   3.852
    3TYR    SC1  838   4.940   1.908   3.661
    3TYR    SC2  839   4.891   1.992   3.440
    3TYR    SC3  840   5.122   1.956   3.372
    1TYR     BB  841   1.439   4.795   7.264
    1TYR    SC1  842   1.372   5.015   7.055
    1TYR    SC2  843   1.417   5.204   7.197
    1TYR    SC3  844   1.514   5.326   7.011
    2PHE     BB  845   1.736   5.013   7.344
    2PHE    SC1  846   1.782   4.830   7.590
    2PHE    SC2  847   1.976   4.941   7.678
    2PHE    SC3  848   1.858   4.876   7.855
    3TYR     BB  849   1.798   5.265   7.535
    3TYR    SC1  850   1.806   5.483   7.342
    3TYR    SC2  851   1.851   5.686   7.464
    3TYR    SC3  852   1.999   5.762   7.287
    1TYR     BB  853   3.452   6.174   6.030
    1TYR    SC1  854   3.449   6.208   6.339
    1TYR    SC2  855   3.411   6.446   6.342
    1TYR    SC3  856   3.265   6.423   6.535
    2PHE     BB  857   3.152   6.403   6.041
    2PHE    SC1  858   3.178   6.421   5.731
    2PHE    SC2  859   2.993   6.570   5.692
    2PHE    SC3  860   3.151   6.628   5.547
    3TYR     BB  861   3.100   6.721   6.042
    3TYR    SC1  862   3.028   6.766   6.321
    3TYR    SC2  863   2.984   7.001   6.348
    3TYR    SC3  864   2.796   6.952   6.494
    1TYR     BB  865   5.423   6.786   7.946
    1TYR    SC1  866   5.425   6.651   7.666
    1TYR    SC2  867   5.279   6.810   7.557
    1TYR    SC3  868   5.411   6.795   7.353
    2PHE     BB  869   5.465   7.106   7.751
    2PHE    SC1  870   5.411   7.255   8.019
    2PHE    SC2  871   5.429   7.480   7.934
    2PHE    SC3  872   5.267   7.483   8.087
    3TYR     BB  873   5.272   7.320   7.607
    3TYR    SC1  874   5.311   7.252   7.327
    3TYR    SC2  875   5.174   7.401   7.196
    3TYR    SC3  876   5.349   7.423   7.030
    1TYR     BB  877   4.987   3.806   6.400
    1TYR    SC1  878   5.277   3.737   6.492
    1TYR    SC2  879   5.234   3.507   6.550
    1TYR    SC3  880   5.451   3.441   6.463
    2PHE     BB  881   5.003   3.472   6.226
    2PHE    SC1  882   4.698   3.505   6.175
    2PHE    SC2  883   4.663   3.297   6.057
    2PHE    SC3  884   4.481   3.330   6.181
    3TYR     BB  885   4.945   3.164   6.302
    3TYR    SC1  886   5.215   3.059   6.329
    3TYR    SC2  887   5.197   2.826   6.387
    3TYR    SC3  888   5.383   2.772   6.240
    1TYR     BB  889   1.688   2.207   6.046
    1TYR    SC1  890   1.877   1.991   6.167
    1TYR    SC2  891   1.978   1.922   5.960
    1TYR    SC3  892   2.193   1.897   6.070
    2PHE     BB  893   1.991   2.304   5.844
    2PHE    SC1  894   1.800   2.485   5.678
    2PHE    SC2  895   1.963   2.572   5.525
    2PHE    SC3  896   1.777   2.544   5.407
    3TYR     BB  897   2.126   2.214   5.566
    3TYR    SC1  898   2.354   2.059   5.660
    3TYR    SC2  899   2.473   1.979   5.467
    3TYR    SC3  900   2.685   2.022   5.576
    1TYR     BB  901   6.001   8.226   7.437
    1TYR    SC1  902   5.969   8.204   7.128
    1TYR    SC2  903   6.076   7.989   7.104
    1TYR    SC3  904   5.916   7.925   6.933
    2PHE     BB  905   5.892   7.865   7.436
    2PHE    SC1  906   5.972   7.860   7.736
    2PHE    SC2  907   5.915   7.630   7.781
    2PHE    SC3  908   6.098   7.672   7.899
    3TYR     BB  909   6.033   7.577   7.406
    3TYR    SC1  910   5.958   7.505   7.134
    3TYR    SC2  911   6.054   7.289   7.088
    3TYR    SC3  912   5.852   7.221   6.971
    1TYR     BB  913   0.082   5.169   5.682
    1TYR    SC1  914   0.340   5.315   5.775
    1TYR    SC2  915   0.293   5.310   6.011
    1TYR    SC3  916   0.527   5.270   6.061
    2PHE     BB  917   0.154   4.938   5.970
    2PHE    SC1  918  -0.129   4.818   5.921
    2PHE    SC2  919  -0.126   4.654   6.097
    2PHE    SC3  920  -0.334   4.731   6.089
    3TYR     BB  921   0.089   4.928   6.286
    3TYR    SC1  922   0.347   5.001   6.400
    3TYR    SC2  923   0.323   5.001   6.639
    3TYR    SC3  924   0.542   4.898   6.664
    1TYR     BB  925   0.067   2.620   0.272
    1TYR    SC1  926   0.117   2.428   0.032
    1TYR    SC2  927   0.235   2.586  -0.107
    1TYR    SC3  928   0.385   2.411  -0.183
    2PHE     BB  929   0.426   2.721   0.217
    2PHE    SC1  930   0.372   2.952   0.418
    2PHE    SC2  931   0.592   3.051   0.412
    2PHE    SC3  932   0.448   3.220   0.428
    3TYR     BB  933   0.585   2.933   0.034
    3TYR    SC1  934   0.700   2.758  -0.169
    3TYR    SC2  935   0.826   2.896  -0.321
    3TYR    SC3  936   1.001   2.728  -0.333
    1TYR     BB  937   2.672   5.049   2.359
    1TYR    SC1  938   2.619   5.046   2.666
    1TYR    SC2  939   2.556   5.278   2.686
    1TYR    SC3  940   2.385   5.220   2.850
    2PHE     BB  941   2.351   5.246   2.344
    2PHE    SC1  942   2.421   5.301   2.046
    2PHE    SC2  943   2.228   5.436   1.992
    2PHE    SC3  944   2.399   5.525   1.881
    3TYR     BB  945   2.265   5.556   2.368
    3TYR    SC1  946   2.147   5.562   2.635
    3TYR    SC2  947   2.074   5.787   2.677
    3TYR    SC3  948   1.873   5.705   2.785
    1TYR     BB  949   3.028   1.441   2.041
    1TYR    SC1  950   3.172   1.714   1.997
    1TYR    SC2  951   3.108   1.743   1.767
    1TYR    SC3  952   3.079   1.981   1.801
    2PHE     BB  953   2.744   1.604   1.855
    2PHE    SC1  954   2.613   1.322   1.846
    2PHE    SC2  955   2.413   1.384   1.726
    2PHE    SC3  956   2.470   1.182   1.652
    3TYR     BB  957   2.655   1.642   1.548
    3TYR    SC1  958   2.723   1.922   1.503
    3TYR    SC2  959   2.665   1.975   1.275
    3TYR    SC3  960   2.581   2.192   1.344
    1TYR     BB  961   0.689   5.231   0.595
    1TYR    SC1  962   0.737   5.535   0.547
    1TYR    SC2  963   0.708   5.605   0.776
    1TYR    SC3  964   0.886   5.769   0.751
    2PHE     BB  965   0.912   5.283   0.895
    2PHE    SC1  966   0.828   4.996   0.983
    2PHE    SC2  967   0.956   4.987   1.187
    2PHE    SC3  968   0.765   4.880   1.229
    3TYR     BB  969   0.875   5.374   1.202
    3TYR    SC1  970   0.979   5.646   1.194
    3TYR    SC2  971   0.962   5.737   1.416
    3TYR    SC3  972   1.178   5.845   1.392
    1TYR     BB  973   2.203   5.241   0.796
    1TYR    SC1  974   2.184   5.280   0.488
    1TYR    SC2  975   1.950   5.337   0.480
    1TYR    SC3  976   1.993   5.501   0.306
    2PHE     BB  977   1.999   5.557   0.810
    2PHE    SC1  978   1.965   5.500   1.114
    2PHE    SC2  979   1.830   5.692   1.168
    2PHE    SC3  980   1.752   5.524   1.292
    3TYR     BB  981   1.687   5.636   0.803
    3TYR    SC1  982   1.661   5.741   0.532
    3TYR    SC2  983   1.431   5.808   0.502
    3TYR    SC3  984   1.501   6.006   0.380
    1TYR     BB  985   5.002   6.273   3.383
    1TYR    SC1  986   5.112   6.345   3.665
    1TYR    SC2  987   4.975   6.540   3.701
    1TYR    SC3  988   4.949   6.482   3.936
    2PHE     BB  989   4.666   6.347   3.538
    2PHE    SC1  990   4.550   6.331   3.250
    2PHE    SC2  991   4.320   6.376   3.304
    2PHE    SC3  992   4.358   6.477   3.110
    3TYR     BB  993   4.480   6.606   3.584
    3TYR    SC1  994   4.518   6.653   3.869
    3TYR    SC2  995   4.387   6.846   3.929
    3TYR    SC3  996   4.321   6.741   4.138
    1TYR     BB  997   5.345   7.901   2.956
    1TYR    SC1  998   5.337   7.790   2.666
    1TYR    SC2  999   5.523   7.640   2.687
    1TYR    SC3 1000   5.410   7.474   2.550
    2PHE     BB 1001   5.396   7.540   3.053
    2PHE    SC1 1002   5.460   7.645   3.339
    2PHE    SC2 1003   5.502   7.431   3.442
    2PHE    SC3 1004   5.647   7.574   3.533
    3TYR     BB 1005   5.645   7.338   3.084
    3TYR    SC1 1006   5.615   7.174   2.845
    3TYR    SC2 1007   5.794   7.013   2.846
    3TYR    SC3 1008   5.643   6.841   2.765
    1TYR     BB 1009   6.856   4.322   2.413
    1TYR    SC1 1010   6.979   4.576   2.543
    1TYR    SC2 1011   7.076   4.667   2.342
    1TYR    SC3 1012   7.018   4.892   2.413
    2PHE     BB 1013   6.747   4.559   2.141
    2PHE    SC1 1014   6.669   4.307   1.977
    2PHE    SC2 1015   6.590   4.420   1.780
    2PHE    SC3 1016   6.692   4.236   1.709
    3TYR     BB 1017   6.874   4.680   1.871
    3TYR    SC1 1018   6.939   4.952   1.955
    3TYR    SC2 1019   7.038   5.064   1.766
    3TYR    SC3 1020   6.918   5.268   1.820
    1TYR     BB 1021   3.945   1.361   5.462
    1TYR    SC1 1022   3.768   1.500   5.247
    1TYR    SC2 1023   3.557   1.410   5.321
    1TYR    SC3 1024   3.447   1.621   5.272
    2PHE     BB 1025   3.673   1.467   5.700
    2PHE    SC1 1026   3.813   1.286   5.911
    2PHE    SC2 1027   3.660   1.325   6.093
    2PHE    SC3 1028   3.720   1.112   6.108
    3TYR     BB 1029   3.392   1.347   5.803
    3TYR    SC1 1030   3.202   1.514   5.657
    3TYR    SC2 1031   2.980   1.442   5.718
    3TYR    SC3 1032   2.904   1.673   5.725
    1TYR     BB 1033   0.936   7.259   4.849
    1TYR    SC1 1034   0.698   7.090   4.957
    1TYR    SC2 1035   0.807   7.013   5.158
    1TYR    SC3 1036   0.599   7.034   5.282
    2PHE     BB 1037   0.965   7.378   5.205
    2PHE    SC1 1038   1.234   7.507   5.121
    2PHE    SC2 1039   1.293   7.601   5.334
    2PHE    SC3 1040   1.484   7.532   5.243
    3TYR     BB 1041   1.112   7.278   5.474
    3TYR    SC1 1042   0.887   7.171   5.626
    3TYR    SC2 1043   0.973   7.089   5.835
    3TYR    SC3 1044   0.779   7.176   5.953
    1TYR     BB 1045   4.552   5.960   5.958
    1TYR    SC1 1046   4.361   5.811   6.153
    1TYR    SC2 1047   4.432   5.924   6.354
    1TYR    SC3 1048   4.203   5.927   6.436
    2PHE     BB 1049   4.448   6.267   6.150
    2PHE    SC1 1050   4.674   6.416   5.998
    2PHE    SC2 1051   4.643   6.633   6.098
    2PHE    SC3 1052   4.862   6.609   6.072
    3TYR     BB 1053   4.543   6.420   6.417
    3TYR    SC1 1054   4.332   6.345   6.604
    3TYR    SC2 1055   4.383   6.449   6.815
    3TYR    SC3 1056   4.147   6.500   6.849
    1TYR     BB 1057   7.664   3.097   5.663
    1TYR    SC1 1058   7.900   3.252   5.532
    1TYR    SC2 1059   8.039   3.061   5.486
    1TYR    SC3 1060   8.109   3.158   5.275
    2PHE     BB 1061   7.713   2.856   5.376
    2PHE    SC1 1062   7.518   2.666   5.526
    2PHE    SC2 1063   7.521   2.486   5.367
    2PHE    SC3 1064   7.510   2.391   5.568
    3TYR     BB 1065   7.896   2.599   5.315
    3TYR    SC1 1066   8.094   2.711   5.133
    3TYR    SC2 1067   8.246   2.534   5.072
    3TYR    SC3 1068   8.252   2.615   4.842
    1TYR     BB 1069   6.557  -0.217   5.392
    1TYR    SC1 1070   6.246  -0.210   5.400
    1TYR    SC2 1071   6.223   0.028   5.429
    1TYR    SC3 1072   6.029   0.031   5.284
    2PHE     BB 1073   6.520   0.084   5.168
    2PHE    SC1 1074   6.828   0.120   5.196
    2PHE    SC2 1075   6.850   0.317   5.059
    2PHE    SC3 1076   6.995   0.341   5.226
    3TYR     BB 1077   6.493   0.403   5.205
    3TYR    SC1 1078   6.209   0.443   5.150
    3TYR    SC2 1079   6.163   0.678   5.173
    3TYR    SC3 1080   6.016   0.671   4.979
    1TYR     BB 1081   1.863   0.461   0.839
    1TYR    SC1 1082   2.066   0.265   0.971
    1TYR    SC2 1083   1.965   0.061   0.893
    1TYR    SC3 1084   2.184  -0.038   0.858
    2PHE     BB 1085   1.900   0.236   0.539
    2PHE    SC1 1086   1.659   0.391   0.417
    2PHE    SC2 1087   1.646   0.270   0.209
    2PHE    SC3 1088   1.436   0.315   0.268
    3TYR     BB 1089   1.763  -0.035   0.431
    3TYR    SC1 1090   1.973  -0.230   0.487
    3TYR    SC2 1091   1.893  -0.446   0.414
    3TYR    SC3 1092   2.112  -0.501   0.327
    1TYR     BB 1093   0.050   3.484   4.749
    1TYR    SC1 1094  -0.083   3.254   4.912
    1TYR    SC2 1095  -0.113   3.103   4.727
    1TYR    SC3 1096  -0.058   2.914   4.869
    2PHE     BB 1097   0.248   3.206   4.589
    2PHE    SC1 1098   0.347   3.418   4.385
    2PHE    SC2 1099   0.487   3.273   4.253
    2PHE    SC3 1100   0.393   3.416   4.110
    3TYR     BB 1101   0.210   3.004   4.341
    3TYR    SC1 1102   0.147   2.755   4.479
    3TYR    SC2 1103   0.113   2.585   4.312
    3TYR    SC3 1104   0.231   2.423   4.448
    1TYR     BB 1105   3.152   2.597   4.350
    1TYR    SC1 1106   3.245   2.778   4.115
    1TYR    SC2 1107   3.352   2.605   3.986
    1TYR    SC3 1108   3.272   2.705   3.780
    2PHE     BB 1109   3.050   2.359   4.077
    2PHE    SC1 1110   3.004   2.149   4.302
    2PHE    SC2 1111   2.934   1.966   4.161
    2PHE    SC3 1112   3.055   1.876   4.325
    3TYR     BB 1113   3.191   2.125   3.905
    3TYR    SC1 1114   3.229   2.258   3.648
    3TYR    SC2 1115   3.335   2.100   3.500
    3TYR    SC3 1116   3.196   2.175   3.316
    1TYR     BB 1117   7.227   3.388   3.221
    1TYR    SC1 1118   7.410   3.260   3.438
    1TYR    SC2 1119   7.562   3.150   3.287
    1TYR    SC3 1120   7.750   3.202   3.432
    2PHE     BB 1121   7.553   3.473   3.051
    2PHE    SC1 1122   7.382   3.554   2.805
    2PHE    SC2 1123   7.562   3.619   2.659
    2PHE    SC3 1124   7.411   3.521   2.529
    3TYR     BB 1125   7.755   3.328   2.846
    3TYR    SC1 1126   7.974   3.255   3.024
    3TYR    SC2 1127   8.141   3.143   2.892
    3TYR    SC3 1128   8.318   3.257   3.013
    1TYR     BB 1129   5.364   5.986   2.024
    1TYR    SC1 1130   5.542   5.892   2.261
    1TYR    SC2 1131   5.754   5.948   2.163
    1TYR    SC3 1132   5.839   6.021   2.378
    2PHE     BB 1133   5.593   6.286   2.021
    2PHE    SC1 1134   5.459   6.363   1.752
    2PHE    SC2 1135   5.585   6.564   1.709
    2PHE    SC3 1136   5.554   6.467   1.511
    3TYR     BB 1137   5.876   6.363   1.888
    3TYR    SC1 1138   6.055   6.345   2.117
    3TYR    SC2 1139   6.277   6.400   2.041
    3TYR    SC3 1140   6.319   6.525   2.245
    1TYR     BB 1141   4.334   6.465   1.243
    1TYR    SC1 1142   4.073   6.324   1.337
    1TYR    SC2 1143   3.919   6.475   1.231
    1TYR    SC3 1144   3.772   6.290   1.175
    2PHE     BB 1145   4.157   6.487   0.911
    2PHE    SC1 1146   4.388   6.675   0.821
    2PHE    SC2 1147   4.309   6.718   0.597
    2PHE    SC3 1148   4.399   6.908   0.669
    3TYR     BB 1149   3.953   6.689   0.766
    3TYR    SC1 1150   3.703   6.541   0.785
    3TYR    SC2 1151   3.531   6.675   0.683
    3TYR    SC3 1152   3.432   6.477   0.582
    1TYR     BB 1153   7.366   3.738   7.390
    1TYR    SC1 1154   7.579   3.626   7.588
    1TYR    SC2 1155   7.563   3.803   7.750
    1TYR    SC3 1156   7.589   3.643   7.931
    2PHE     BB 1157   7.166   3.805   7.702
    2PHE    SC1 1158   6.973   3.967   7.522
    2PHE    SC2 1159   6.817   4.034   7.693
    2PHE    SC3 1160   6.834   4.207   7.553
    3TYR     BB 1161   7.142   4.041   7.920
    3TYR    SC1 1162   7.284   3.926   8.146
    3TYR    SC2 1163   7.280   4.087   8.325
    3TYR    SC3 1164   7.242   3.911   8.488
    1TYR     BB 1165   6.872   5.712   3.041
    1TYR    SC1 1166   6.613   5.541   3.069
    1TYR    SC2 1167   6.665   5.446   3.284
    1TYR    SC3 1168   6.432   5.463   3.351
    2PHE     BB 1169   6.806   5.801   3.402
    2PHE    SC1 1170   7.089   5.931   3.402
    2PHE    SC2 1171   7.090   6.005   3.631
    2PHE    SC3 1172   7.298   5.939   3.587
    3TYR     BB 1173   6.876   5.677   3.691
    3TYR    SC1 1174   6.619   5.564   3.768
    3TYR    SC2 1175   6.647   5.463   3.985
    3TYR    SC3 1176   6.429   5.545   4.054
    1TYR     BB 1177   1.040   1.555   4.873
    1TYR    SC1 1178   1.297   1.650   5.022
    1TYR    SC2 1179   1.228   1.878   5.053
    1TYR    SC3 1180   1.330   1.882   5.273
    2PHE     BB 1181   0.859   1.752   5.138
    2PHE    SC1 1182   0.602   1.709   4.969
    2PHE    SC2 1183   0.449   1.829   5.111
    2PHE    SC3 1184   0.385   1.871   4.902
    3TYR     BB 1185   0.765   2.057   5.181
    3TYR    SC1 1186   0.960   2.150   5.376
    3TYR    SC2 1187   0.910   2.381   5.425
    3TYR    SC3 1188   0.958   2.345   5.660
    1TYR     BB 1189   3.578   4.743   4.642
    1TYR    SC1 1190   3.827   4.694   4.823
    1TYR    SC2 1191   3.706   4.668   5.030
    1TYR    SC3 1192   3.859   4.493   5.100
    2PHE     BB 1193   3.428   4.457   4.835
    2PHE    SC1 1194   3.158   4.531   4.699
    2PHE    SC2 1195   3.023   4.361   4.802
    2PHE    SC3 1196   2.894   4.541   4.787
    3TYR     BB 1197   3.265   4.419   5.110
    3TYR    SC1 1198   3.470   4.307   5.284
    3TYR    SC2 1199   3.370   4.270   5.500
    3TYR    SC3 1200   3.490   4.060   5.522
    4W        W 1201   4.010   5.867   1.494
    5W        W 1202   5.106   7.621   1.686
    6W        W 1203   3.772   4.299   0.403
    7W        W 1204   5.683   0.072   4.002
    8W        W 1205   3.484   7.360   2.147
    9W        W 1206   2.537   3.319   3.106
   10W        W 1207   3.373   7.676   5.025
   11W        W 1208   3.635   6.731   2.684
   12W        W 1209   3.112   3.406   6.189
   13W        W 1210   6.617   2.508   3.357
   14W        W 1211   0.928   6.753   6.162
   15W        W 1212   2.972   7.428   4.929
   16W        W 1213   6.117   6.459   3.240
   17W        W 1214   7.256   3.126   1.905
   18W        W 1215   4.479   7.132   6.676
   19W        W 1216   3.548   2.037   0.913
   20W        W 1217   4.614   4.267   3.949
   21W        W 1218   4.204   3.886   1.026
   22W        W 1219   5.594   4.501   0.154
   23W        W 1220   0.331   3.089   3.924
   24W        W 1221   5.364   2.299   5.526
   25W        W 1222   2.937   0.037   5.008
   26W        W 1223   1.453   4.276   3.805
   27W        W 1224   0.429   6.932   3.776
   28W        W 1225   7.929   1.101   3.258
   29W        W 1226   0.180   4.842   4.244
   30W        W 1227   7.654   6.841   5.972
   31W        W 1228   3.181   1.827   1.211
   32W        W 1229   4.354   0.291   4.467
   33W        W 1230   3.430   4.024   2.538
   34W        W 1231   3.545   3.352   0.603
   35W        W 1232   2.630   7.135   2.585
   36W        W 1233   5.533   0.490   3.665
   37W        W 1234   2.251   0.633   4.073
   38W        W 1235   3.736   4.560   6.753
   39W        W 1236   7.851   2.797   3.902
   40W        W 1237   4.568   6.469   2.461
   41W        W 1238   5.676   1.433   2.966
   42W        W 1239   4.819   6.067   6.364
   43W        W 1240   0.606   2.177   6.213
   44W        W 1241   4.639   0.850   7.747
   45W        W 1242   1.119   5.630   1.968
   46W        W 1243   2.617   7.080   0.519
   47W        W 1244   1.180   3.272   4.125
   48W        W 1245   3.481   0.246   1.393
   49W        W 1246   6.733   1.195   3.868
   50W        W 1247   1.407   0.692   3.619
   51W        W 1248   1.602   2.575   3.865
   52W        W 1249   3.987   7.321   3.032
   53W        W 1250   1.242   7.332   1.453
   54W        W 1251   5.253   5.959   0.677
   55W        W 1252   4.050   5.464   2.603
   56W        W 1253   6.449   1.641   4.888
   57W        W 1254   0.387   1.607   7.962
   58W        W 1255   6.442   3.540   3.828
   59W        W 1256   3.367   3.532   4.367
   60W        W 1257   3.230   4.191   0.394
   61W        W 1258   4.803   0.282   2.107
   62W        W 1259   3.462   3.638   5.146
   63W        W 1260   6.619   6.519   2.671
   64W        W 1261   7.309   0.266   0.194
   65W        W 1262   7.424   3.158   0.769
   66W        W 1263   5.880   5.100   7.157
   67W        W 1264   2.098   2.272   1.668
   68W        W 1265   6.438   4.924   7.950
   69W        W 1266   1.608   1.490   1.416
   70W        W 1267   0.024   0.654   7.928
   71W        W 1268   6.084   2.032   2.232
   72W        W 1269   5.349   6.095   3.993
   73W        W 1270   1.816   2.172   7.150
   74W        W 1271   5.173   2.658   1.706
   75W        W 1272   6.188   7.690   0.733
   76W        W 1273   1.268   4.458   2.892
   77W        W 1274   7.814   7.422   5.045
   78W        W 1275   0.819   0.266   0.956
   79W        W 1276   0.750   1.601   4.399
   80W        W 1277   1.797   0.656   7.022
   81W        W 1278   4.102   4.177   4.143
   82W        W 1279   2.391   5.181   5.671
   83W        W 1280   0.259   7.046   0.824
   84W        W 1281   6.056   5.766   5.520
   85W        W 1282   7.915   3.693   5.877
   86W        W 1283   2.142   3.523   0.605
   87W        W 1284   5.241   5.224   4.271
   88W        W 1285   5.922   4.214   1.251
   89W        W 1286   6.591   0.284   2.179
   90W        W 1287   2.239   4.351   6.496
   91W        W 1288   6.496   5.044   1.240
   92W        W 1289   2.076   4.846   5.023
   93W        W 1290   7.405   3.890   1.145
   94W        W 1291   3.714   5.802   5.639
   95W        W 1292   0.394   3.751   3.247
   96W        W 1293   2.626   4.308   5.785
   97W        W 1294   7.728   0.116   7.149
   98W        W 1295   2.906   4.490   0.247
   99W        W 1296   3.678   0.463   4.635
  100W        W 1297   3.544   5.250   4.852
  101W        W 1298   7.724   7.128   1.245
  102W        W 1299   0.266   3.307   6.067
  103W        W 1300   5.281   7.196   5.432
  104W        W 1301   1.384   0.021   3.146
  105W        W 1302   0.853   7.400   1.141
  106W        W 1303   2.052   0.513   6.055
  107W        W 1304   3.922   2.298   4.099
  108W        W 1305   5.561   0.088   6.628
  109W        W 1306   0.770   0.423   0.434
  110W        W 1307   2.607   7.020   6.969
  111W        W 1308   2.810   7.885   0.487
  112W        W 1309   3.742   4.648   2.876
  113W        W 1310   3.497   4.702   7.377
  114W        W 1311   2.552   4.984   3.352
  115W        W 1312   2.997   4.317   1.667
  116W        W 1313   1.083   6.169   5.039
  117W        W 1314   6.865   3.091   5.000
  118W        W 1315   3.990   4.941   5.149
  119W        W 1316   5.907   7.058   7.581
  120W        W 1317   3.354   0.720   1.981
  121W        W 1318   6.021   3.539   3.652
  122W        W 1319   2.808   2.563   2.111
  123W        W 1320   4.883   2.466   7.680
  124W        W 1321   7.565   5.936   3.753
  125W        W 1322   4.262   7.625   6.543
  126W        W 1323   4.190   2.869   5.895
  127W        W 1324   6.424   7.762   5.954
  128W        W 1325   6.511   6.696   6.796
  129W        W 1326   0.846   5.585   3.603
  130W        W 1327   4.572   5.569   2.581
  131W        W 1328   3.491   7.120   0.669
  132W        W 1329   3.830   6.778   4.809
  133W        W 1330   4.149   3.775   0.503
  134W        W 1331   4.457   1.760   0.882
  135W        W 1332   1.068   1.917   5.980
  136W        W 1333   0.845   5.393   2.613
  137W        W 1334   3.555   4.534   2.444
  138W        W 1335   4.290   5.252   2.235
  139W        W 1336   7.292   5.438   1.135
  140W        W 1337   4.900   2.969   1.462
  141W        W 1338   4.043   3.164   1.239
  142W        W 1339   2.314   6.966   3.819
  143W        W 1340   3.631   5.801   0.429
  144W        W 1341   6.190   6.168   2.866
  145W        W 1342   0.738   4.462   0.887
  146W        W 1343   0.049   0.664   0.817
  147W        W 1344   0.564   4.822   1.825
  148W        W 1345   4.805   5.036   6.253
  149W        W 1346   7.245   2.690   7.612
  150W        W 1347   4.274   3.116   2.080
  151W        W 1348   5.786   5.809   0.667
  152W        W 1349   0.018   3.626   5.211
  153W        W 1350   7.280   1.793   5.959
  154W        W 1351   2.590   4.619   1.098
  155W        W 1352   0.505   5.802   6.467
  156W        W 1353   7.009   0.626   1.518
  157W        W 1354   1.273   0.657   6.567
  158W        W 1355   0.325   6.638   1.251
  159W        W 1356   4.013   7.430   1.986
  160W        W 1357   5.923   0.865   0.157
  161W        W 1358   2.861   6.097   1.457
  162W        W 1359   7.281   6.851   6.945
  163W        W 1360   3.774   1.376   4.335
  164W        W 1361   3.628   3.244   0.059
  165W        W 1362   0.347   7.146   3.114
  166W        W 1363   3.678   3.672   0.904
  167W        W 1364   7.741   0.449   0.390
  168W        W 1365   1.469   6.671   5.382
  169W        W 1366   2.608   7.013   1.645
  170W        W 1367   6.769   5.310   0.874
  171W        W 1368   6.324   2.586   2.869
  172W        W 1369   6.121   1.236   7.826
  173W        W 1370   7.235   4.956   6.943
  174W        W 1371   7.603   5.308   4.528
  175W        W 1372   5.208   1.841   7.851
  176W        W 1373   4.545   3.698   6.398
  177W        W 1374   3.100   4.999   4.788
  178W        W 1375   5.971   3.294   4.615
  179W        W 1376   2.201   3.642   2.003
  180W        W 1377   1.229   1.111   5.164
  181W        W 1378   2.950   7.365   2.256
  182W        W 1379   1.495   6.815   1.374
  183W        W 1380   0.800   1.759   3.437
  184W        W 1381   3.677   4.566   4.058
  185W        W 1382   3.060   1.377   1.006
  186W        W 1383   6.225   4.142   0.710
  187W        W 1384   7.406   4.118   1.879
  188W        W 1385   2.654   3.201   0.720
  189W        W 1386   1.345   2.618   2.437
  190W        W 1387   2.368   0.020   4.519
  191W        W 1388   2.731   6.631   0.322
  192W        W 1389   5.736   6.311   2.823
  193W        W 1390   1.161   0.086   5.427
  194W        W 1391   7.071   3.024   0.035
  195W        W 1392   5.973   2.274   4.878
  196W        W 1393   6.196   7.507   4.890
  197W        W 1394   3.485   4.051   4.160
  198W        W 1395   5.497   6.915   4.538
  199W        W 1396   2.980   2.287   7.647
  200W        W 1397   0.298   4.821   0.245
  201W        W 1398   3.681   2.474   1.733
  202W        W 1399   1.186   3.504   2.720
  203W        W 1400   7.495   0.885   7.167
  204W        W 1401   2.179   5.064   7.217
  205W        W 1402   0.068   0.328   2.342
  206W        W 1403   5.498   6.883   4.043
  207W        W 1404   5.849   0.071   4.560
  208W        W 1405   7.408   6.166   4.959
  209W        W 1406   0.698   6.968   1.731
  210W        W 1407   0.445   4.265   0.421
  211W        W 1408   2.303   2.590   3.904
  212W        W 1409   0.862   3.544   6.816
  213W        W 1410   7.556   5.320   3.163
  214W        W 1411   7.566   2.429   7.824
  215W        W 1412   1.325   5.009   3.067
  216W        W 1413   1.347   4.575   1.821
  217W        W 1414   6.745   7.306   0.052
  218W        W 1415   2.843   6.163   4.726
  219W        W 1416   2.867   2.023   2.130
  220W        W 1417   7.841   5.773   4.474
  221W        W 1418   6.988   1.672   0.535
  222W        W 1419   7.317   7.251   0.731
  223W        W 1420   2.995   1.542   6.545
  224W        W 1421   5.791   3.202   6.485
  225W        W 1422   1.278   4.324   5.223
  226W        W 1423   1.768   4.770   0.877
  227W        W 1424   4.800   6.174   2.801
  228W        W 1425   0.995   2.283   0.036
  229W        W 1426   1.393   3.615   0.220
  230W        W 1427   2.434   5.388   4.233
  231W        W 1428   2.627   0.058   3.162
  232W        W 1429   6.572   3.457   4.822
  233W        W 1430   5.078   0.628   5.918
  234W        W 1431   2.301   7.087   5.753
  235W        W 1432   1.257   2.988   3.634
  236W        W 1433   1.958   2.741   4.232
  237W        W 1434   1.209   3.848   3.757
  238W        W 1435   1.171   5.164   0.345
  239W        W 1436   6.131   1.084   5.860
  240W        W 1437   6.559   4.297   3.034
  241W        W 1438   1.930   4.403   3.622
  242W        W 1439   1.653   2.963   7.762
  243W        W 1440   7.497   7.503   2.703
  244W        W 1441   0.845   0.004   1.893
  245W        W 1442   3.685   4.593   1.142
  246W        W 1443   2.903   4.153   4.253
  247W        W 1444   4.763   6.233   1.425
  248W        W 1445   1.429   1.504   5.383
  249W        W 1446   2.900   7.568   1.425
  250W        W 1447   2.405   3.182   5.125
  251W        W 1448   1.022   4.864   2.682
  252W        W 1449   2.301   1.283   3.573
  253W        W 1450   5.328   7.070   1.319
  254W        W 1451   5.922   4.946   4.852
  255W        W 1452   5.649   3.354   2.642
  256W        W 1453   5.659   4.976   2.782
  257W        W 1454   5.314   0.911   3.796
  258W        W 1455   5.943   4.663   6.881
  259W        W 1456   1.579   5.387   0.174
  260W        W 1457   0.395   0.226   3.592
  261W        W 1458   0.846   4.409   1.617
  262W        W 1459   7.103   5.197   3.607
  263W        W 1460   0.108   5.363   5.096
  264W        W 1461   7.672   6.207   4.515
  265W        W 1462   4.218   6.098   3.471
  266W        W 1463   5.229   4.522   7.471
  267W        W 1464   1.375   3.430   1.164
  268W        W 1465   1.671   4.157   5.560
  269W        W 1466   7.044   7.394   2.370
  270W        W 1467   1.383   5.875   3.643
  271W        W 1468   6.533   5.993   5.084
  272W        W 1469   3.025   4.593   7.244
  273W        W 1470   4.435   3.823   1.570
  274W        W 1471   5.675   6.250   7.689
  275W        W 1472   4.342   0.358   3.837
  276W        W 1473   4.244   0.539   5.236
  277W        W 1474   0.524   2.258   3.431
  278W        W 1475   2.563   2.588   2.961
  279W        W 1476   3.545   7.783   0.149
  280W        W 1477   5.677   6.043   5.750
  281W        W 1478   0.087   7.329   0.257
  282W        W 1479   1.748   1.354   0.943
  283W        W 1480   1.742   1.862   7.722
  284W        W 1481   0.114   5.180   2.143
  285W        W 1482   0.792   5.281   1.646
  286W        W 1483   0.422   5.714   0.978
  287W        W 1484   2.350   4.732   5.471
  288W        W 1485   4.647   7.242   4.709
  289W        W 1486   7.841   4.210   2.193
  290W        W 1487   4.992   0.675   6.877
  291W        W 1488   2.805   1.992   3.466
  292W        W 1489   6.557   0.721   1.160
  293W        W 1490   3.150   3.798   1.634
  294W        W 1491   6.939   4.095   0.989
  295W        W 1492   2.481   2.362   6.005
  296W        W 1493   6.224   0.691   6.822
  297W        W 1494   1.758   0.699   6.406
  298W        W 1495   6.416   6.936   7.574
  299W        W 1496   7.141   6.937   4.678
  300W        W 1497   4.635   4.146   6.694
  301W        W 1498   5.425   3.722   2.390
  302W        W 1499   6.697   4.696   3.271
  303W        W 1500   5.016   5.636   1.548
  304W        W 1501   1.617   1.242   2.597
  305W        W 1502   3.105   0.486   4.764
  306W        W 1503   7.241   7.263   5.065
  307W        W 1504   2.191   7.073   3.340
  308W        W 1505   6.899   1.528   7.660
  309W        W 1506   5.704   5.121   3.873
  310W        W 1507   0.520   2.210   6.938
  311W        W 1508   2.932   0.801   0.370
  312W        W 1509   2.837   5.883   7.389
  313W        W 1510   7.173   3.649   0.718
  314W        W 1511   4.889   1.207   6.940
  315W        W 1512   6.705   3.832   0.546
  316W        W 1513   1.004   5.143   2.218
  317W        W 1514   3.324   5.958   2.361
  318W        W 1515   6.530   3.909   6.745
  319W        W 1516   2.133   6.592   5.974
  320W        W 1517   1.283   4.261   2.374
  321W        W 1518   1.301   6.551   2.309
  322W        W 1519   0.777   1.492   0.827
  323W        W 1520   2.547   1.040   6.531
  324W        W 1521   3.382   1.587   2.877
  325W        W 1522   7.406   4.704   5.392
  326W        W 1523   2.768   3.633   7.114
  327W        W 1524   7.273   3.416   1.170
  328W        W 1525   6.681   7.391   7.347
  329W        W 1526   5.999   6.606   7.491
  330W        W 1527   1.627   0.717   2.411
  331W        W 1528   4.575   2.868   4.304
  332W        W 1529   4.481   7.411   7.134
  333W        W 1530   2.646   5.930   6.748
  334W        W 1531   6.496   1.454   1.899
  335W        W 1532   5.963   5.419   1.042
  336W        W 1533   5.321   1.660   3.240
  337W        W 1534   6.156   3.098   3.705
  338W        W 1535   4.818   5.202   6.966
  339W        W 1536   5.537   3.717   0.458
  340W        W 1537   0.886   5.340   6.281
  341W        W 1538   4.573   1.429   2.257
  342W        W 1539   0.306   1.856   4.245
  343W        W 1540   7.326   2.967   4.964
  344W        W 1541   4.214   5.143   5.601
  345W        W 1542   5.152   1.309   0.457
  346W        W 1543   4.337   3.721   2.079
  347W        W 1544   2.805   0.133   5.663
  348W        W 1545   2.413   5.702   5.113
  349W        W 1546   2.356   4.649   0.183
  350W        W 1547   2.193   3.020   0.659
  351W        W 1548   3.073   3.541   4.860
  352W        W 1549   7.972   4.131   5.298
  353W        W 1550   6.039   6.093   7.368
  354W        W 1551   5.332   1.206   5.178
  355W        W 1552   5.119   3.721   2.772
  356W        W 1553   4.362   4.703   3.421
  357W        W 1554   4.862   0.087   1.302
  358W        W 1555   1.016   1.658   3.062
  359W        W 1556   6.397   4.930   5.059
  360W        W 1557   4.367   0.630   6.638
  361W        W 1558   0.573   6.303   0.535
  362W        W 1559   2.253   4.285   2.069
  363W        W 1560   0.523   0.084   2.524
  364W        W 1561   7.573   0.969   0.532
  365W        W 1562   0.892   2.859   2.310
  366W        W 1563   1.603   4.785   3.774
  367W        W 1564   7.206   6.744   0.661
  368W        W 1565   3.928   5.259   4.369
  369W        W 1566   6.934   1.523   1.598
  370W        W 1567   6.265   3.953   2.164
  371W        W 1568   3.423   1.148   3.498
  372W        W 1569   0.241   3.307   1.316
  373W        W 1570   0.183   1.030   1.247
  374W        W 1571   0.825   0.474   5.265
  375W        W 1572   5.184   4.770   1.939
  376W        W 1573   1.362   4.615   3.381
  377W        W 1574   5.576   7.464   1.775
  378W        W 1575   1.752   2.802   3.190
  379W        W 1576   0.058   2.030   4.773
  380W        W 1577   2.681   4.176   7.386
  381W        W 1578   0.707   7.542   3.167
  382W        W 1579   6.379   5.864   6.323
  383W        W 1580   1.168   3.771   4.365
  384W        W 1581   2.601   7.345   6.069
  385W        W 1582   0.563   6.180   0.034
  386W        W 1583   0.615   1.893   5.790
  387W        W 1584   3.021   6.917   3.273
  388W        W 1585   2.204   3.416   0.101
  389W        W 1586   7.823   1.835   5.082
  390W        W 1587   6.666   3.551   7.171
  391W        W 1588   4.694   0.868   1.349
  392W        W 1589   3.953   1.633   4.995
  393W        W 1590   6.228   2.115   7.354
  394W        W 1591   0.166   5.804   4.064
  395W        W 1592   2.339   0.609   0.742
  396W        W 1593   3.541   1.808   0.365
  397W        W 1594   6.492   5.083   5.554
  398W        W 1595   0.928   1.731   3.962
  399W        W 1596   7.648   1.659   2.228
  400W        W 1597   2.513   1.885   7.289
  401W        W 1598   2.496   1.095   3.080
  402W        W 1599   0.595   3.849   4.288
  403W        W 1600   4.477   3.244   7.145
  404W        W 1601   2.804   5.000   7.134
  405W        W 1602   5.180   3.234   1.965
  406W        W 1603   0.566   6.664   5.754
  407W        W 1604   3.374   6.613   3.132
  408W        W 1605   7.344   7.811   6.781
  409W        W 1606   0.731   3.864   1.693
  410W        W 1607   6.718   4.841   6.852
  411W        W 1608   4.272   7.015   3.315
  412W        W 1609   5.991   0.370   6.393
  413W        W 1610   5.310   2.779   5.362
  414W        W 1611   0.761   1.889   0.418
  415W        W 1612   7.669   4.637   0.673
  416W        W 1613   6.150   4.390   4.087
  417W        W 1614   4.450   6.418   4.240
  418W        W 1615   4.368   6.712   2.046
  419W        W 1616   0.909   0.784   7.552
  420W        W 1617   3.135   4.586   7.784
  421W        W 1618   3.147   0.050   4.128
  422W        W 1619   1.467   5.549   4.738
  423W        W 1620   2.707   0.257   1.550
  424W        W 1621   7.276   2.491   0.280
  425W        W 1622   1.401   0.343   7.024
  426W        W 1623   5.050   7.122   0.900
  427W        W 1624   1.652   5.783   5.755
  428W        W 1625   3.212   4.240   6.956
  429W        W 1626   5.090   3.496   3.901
  430W        W 1627   2.204   1.607   1.031
  431W        W 1628   0.423   3.184   2.254
  432W        W 1629   5.206   1.158   3.101
  433W        W 1630   0.360   0.848   7.618
  434W        W 1631   1.492   2.380   7.774
  435W        W 1632   5.842   1.869   0.596
  436W        W 1633   6.914   3.731   3.693
  437W        W 1634   6.665   6.398   5.403
  438W        W 1635   7.928   0.867   6.951
  439W        W 1636   4.297   1.466   3.131
  440W        W 1637   6.904   5.757   2.450
  441W        W 1638   0.487   6.888   0.434
  442W        W 1639   3.069   3.815   3.953
  443W        W 1640   2.757   4.564   4.506
  444W        W 1641   0.201   7.539   6.349
  445W        W 1642   1.409   7.471   2.213
  446W        W 1643   1.523   3.008   5.442
  447W        W 1644   4.673   2.041   7.892
  448W        W 1645   0.198   1.316   1.688
  449W        W 1646   6.652   7.714   3.202
  450W        W 1647   6.265   7.347   0.304
  451W        W 1648   7.092   2.642   5.770
  452W        W 1649   2.646   2.891   3.764
  453W        W 1650   2.531   3.557   4.853
  454W        W 1651   6.769   2.803   5.426
  455W        W 1652   1.299   3.182   0.545
  456W        W 1653   1.273   1.200   2.197
  457W        W 1654   7.431   1.580   4.839
  458W        W 1655   7.412   3.771   5.062
  459W        W 1656   0.548   4.539   4.546
  460W        W 1657   4.249   7.158   6.207
  461W        W 1658   4.071   4.230   5.690
  462W        W 1659   3.950   2.589   7.550
  463W        W 1660   7.042   2.932   0.499
  464W        W 1661   1.247   5.733   2.433
  465W        W 1662   4.685   3.375   1.712
  466W        W 1663   2.995   7.596   5.450
  467W        W 1664   4.314   4.547   4.889
  468W        W 1665   4.688   3.956   2.447
  469W        W 1666   6.934   7.511   5.920
  470W        W 1667   5.246   2.577   1.201
  471W        W 1668   0.639   4.149   1.266
  472W        W 1669   7.077   6.869   0.119
  473W        W 1670   6.566   3.867   3.310
  474W        W 1671   1.810   1.959   3.307
  475W        W 1672   2.555   5.326   7.457
  476W        W 1673   5.744   1.778   2.600
  477W        W 1674   6.534   2.133   3.736
  478W        W 1675   2.697   7.460   4.056
  479W        W 1676   4.633   0.642   4.197
  480W        W 1677   3.496   3.235   4.749
  481W        W 1678   2.983   1.256   3.038
  482W        W 1679   5.067   6.904   3.109
  483W        W 1680   0.177   6.841   5.469
  484W        W 1681   0.100   5.858   0.041
  485W        W 1682   5.120   6.472   2.237
  486W        W 1683   7.425   1.891   3.543
  487W        W 1684   3.346   3.366   2.062
  488W        W 1685   4.943   3.212   7.333
  489W        W 1686   2.905   0.493   5.326
  490W        W 1687   1.813   1.775   4.665
  491W        W 1688   1.215   4.687   0.844
  492W        W 1689   3.028   7.407   0.527
  493W        W 1690   0.201   3.645   6.965
  494W        W 1691   7.277   4.794   2.733
  495W        W 1692   0.830   1.719   7.354
  496W        W 1693   5.349   4.628   4.057
  497W        W 1694   4.966   2.867   6.984
  498W        W 1695   1.262   3.033   5.054
  499W        W 1696   6.613   7.421   6.380
  500W        W 1697   4.620   3.907   0.719
  501W        W 1698   4.987   7.461   7.894
  502W        W 1699   7.222   7.579   7.508
  503W        W 1700   7.792   6.749   0.286
  504W        W 1701   7.772   0.232   5.642
  505W        W 1702   5.982   5.966   5.055
  506W        W 1703   6.420   7.919   0.320
  507W        W 1704   5.940   6.054   0.239
  508W        W 1705   4.342   2.977   1.604
  509W        W 1706   2.628   3.594   2.729
  510W        W 1707   3.020   1.291   5.221
  511W        W 1708   4.653   2.617   1.232
  512W        W 1709   7.318   0.141   6.262
  513W        W 1710   6.209   0.931   1.592
  514W        W 1711   6.479   5.093   4.224
  515W        W 1712   5.660   4.132   7.602
  516W        W 1713   1.283   4.695   6.268
  517W        W 1714   1.247   6.209   5.510
  518W        W 1715   4.118   4.271   1.307
  519W        W 1716   6.839   5.566   1.290
  520W        W 1717   4.773   7.483   0.258
  521W        W 1718   1.712   6.500   6.804
  522W        W 1719   7.238   4.283   6.320
  523W        W 1720   7.635   5.228   2.470
  524W        W 1721   0.324   3.610   2.813
  525W        W 1722   1.908   6.078   7.028
  526W        W 1723   6.343   2.126   3.278
  527W        W 1724   3.187   0.885   5.582
  528W        W 1725   5.502   3.440   1.015
  529W        W 1726   0.033   4.036   6.689
  530W        W 1727   3.401   7.094   6.261
  531W        W 1728   7.723   6.265   7.387
  532W        W 1729   5.805   4.808   1.212
  533W        W 1730   6.441   5.309   7.423
  534W        W 1731   7.520   2.191   7.253
  535W        W 1732   4.744   5.516   5.387
  536W        W 1733   0.035   2.034   2.958
  537W        W 1734   0.318   4.358   1.668
  538W        W 1735   0.425   4.345   5.912
  539W        W 1736   2.542   1.777   2.588
  540W        W 1737   5.808   0.551   0.559
  541W        W 1738   7.877   2.039   7.607
  542W        W 1739   5.204   3.543   1.426
  543W        W 1740   2.582   7.435   4.585
  544W        W 1741   1.677   2.861   5.916
  545W        W 1742   2.080   0.539   4.640
  546W        W 1743   4.426   0.669   2.879
  547W        W 1744   4.071   2.436   0.616
  548W        W 1745   5.158   5.228   6.585
  549W        W 1746   0.143   0.560   4.410
  550W        W 1747   4.606   5.967   5.119
  551W        W 1748   2.536   0.558   5.816
  552W        W 1749   7.991   5.633   6.639
  553W        W 1750   3.832   7.376   0.280
  554W        W 1751   0.286   5.890   4.577
  555W        W 1752   2.289   0.991   6.095
  556W        W 1753   2.265   7.063   5.248
  557W        W 1754   7.324   0.298   1.252
  558W        W 1755   2.160   2.927   2.892
  559W        W 1756   4.399   0.978   5.528
  560W        W 1757   4.993   5.267   2.821
  561W        W 1758   7.259   2.940   1.332
  562W        W 1759   2.877   6.251   5.587
  563W        W 1760   1.792   4.490   5.249
  564W        W 1761   3.396   7.434   1.537
  565W        W 1762   4.232   3.931   7.043
  566W        W 1763   1.236   7.565   4.667
  567W        W 1764   3.495   4.730   6.042
  568W        W 1765   5.740   1.246   1.262
  569W        W 1766   3.007   1.081   6.393
  570W        W 1767   6.796   4.395   4.888
  571W        W 1768   3.604   3.499   6.074
  572W        W 1769   5.221   1.061   6.166
  573W        W 1770   4.930   6.797   1.256
  574W        W 1771   2.289   3.106   4.016
  575W        W 1772   1.348   2.195   4.747
  576W        W 1773   5.230   6.346   6.416
  577W        W 1774   7.176   0.904   7.736
  578W        W 1775   2.805   4.665   6.760
  579W        W 1776   4.819   3.146   4.692
  580W        W 1777   7.781   7.076   4.202
  581W        W 1778   5.101   1.691   1.163
  582W        W 1779   6.234   3.081   6.213
  583W        W 1780   6.922   4.502   4.361
  584W        W 1781   2.383   7.524   6.951
  585W        W 1782   7.563   0.563   0.850
  586W        W 1783   5.289   4.868   1.395
  587W        W 1784   0.424   7.201   6.711
  588W        W 1785   0.152   2.032   6.016
  589W        W 1786   7.587   4.028   2.743
  590W        W 1787   2.291   0.858   7.014
  591W        W 1788   5.202   0.039   1.816
  592W        W 1789   3.216   2.553   6.908
  593W        W 1790   4.125   0.137   4.980
  594W        W 1791   5.652   1.070   7.518
  595W        W 1792   4.900   5.178   4.854
  596W        W 1793   1.500   7.354   5.865
  597W        W 1794   3.738   3.949   6.893
  598W        W 1795   1.396   5.128   1.171
  599W        W 1796   5.814   6.463   4.070
  600W        W 1797   1.918   1.408   3.199
  601W        W 1798   7.084   0.246   7.757
  602W        W 1799   7.535   3.451   6.572
  603W        W 1800   4.761   4.458   7.624
  604W        W 1801   5.476   5.506   3.062
  605W        W 1802   2.863   3.651   4.411
  606W        W 1803   3.124   4.803   5.673
  607W        W 1804   7.743   2.535   6.986
  608W        W 1805   3.772   5.184   5.908
  609W        W 1806   7.319   0.592   3.824
  610W        W 1807   0.942   3.312   3.162
  611W        W 1808   3.732   1.920   4.338
  612W        W 1809   5.663   7.312   0.318
  613W        W 1810   5.389   2.908   7.218
  614W        W 1811   6.666   1.431   7.086
  615W        W 1812   4.791   5.033   4.367
  616W        W 1813   7.727   7.693   5.756
  617W        W 1814   3.053   0.148   6.574
  618W        W 1815   3.165   0.879   0.806
  619W        W 1816   2.648   2.429   4.900
  620W        W 1817   4.099   7.265   7.501
  621W        W 1818   5.414   4.967   5.019
  622W        W 1819   5.643   4.973   1.712
  623W        W 1820   3.923   5.851   2.934
  624W        W 1821   1.047   0.730   0.842
  625W        W 1822   3.739   6.172   4.685
  626W        W 1823   7.646   0.601   5.030
  627W        W 1824   0.747   7.548   4.601
  628W        W 1825   7.994   6.359   3.127
  629W        W 1826   1.802   3.796   0.068
  630W        W 1827   4.654   7.471   0.948
  631W        W 1828   3.264   6.732   4.230
  632W        W 1829   1.008   3.978   2.077
  633W        W 1830   7.017   4.256   1.494
  634W        W 1831   6.891   6.336   5.858
  635W        W 1832   5.465   1.586   6.276
  636W        W 1833   1.614   5.297   3.790
  637W        W 1834   1.659   3.056   1.384
  638W        W 1835   1.408   3.908   7.214
  639W        W 1836   1.016   3.415   6.237
  640W        W 1837   5.187   5.137   2.376
  641W        W 1838   4.676   2.608   2.394
  642W        W 1839   5.945   7.734   0.261
  643W        W 1840   1.525   2.450   0.197
  644W        W 1841   0.843   5.491   6.891
  645W        W 1842   4.583   7.146   2.891
  646W        W 1843   1.597   5.021   4.554
  647W        W 1844   3.044   4.869   6.206
  648W        W 1845   7.135   0.546   6.432
  649W        W 1846   4.333   6.850   4.869
  650W        W 1847   2.900   5.411   5.076
  651W        W 1848   3.065   2.670   2.662
  652W        W 1849   3.117   0.315   2.395
  653W        W 1850   6.485   0.695   2.439
  654W        W 1851   2.286   5.863   6.341
  655W        W 1852   5.315   1.012   2.156
  656W        W 1853   1.212   6.050   4.135
  657W        W 1854   4.418   4.685   2.333
  658W        W 1855   5.465   5.844   3.535
  659W        W 1856   3.570   2.692   4.939
  660W        W 1857   3.117   3.245   0.875
  661W        W 1858   3.302   5.552   5.361
  662W        W 1859   3.398   6.302   2.719
  663W        W 1860   7.441   2.521   4.771
  664W        W 1861   5.560   3.464   4.792
  665W        W 1862   4.183   0.432   5.722
  666W        W 1863   3.636   4.251   6.241
  667W        W 1864   4.758   3.178   2.262
  668W        W 1865   1.587   1.163   3.531
  669W        W 1866   7.052   4.064   4.338
  670W        W 1867   0.063   3.334   1.877
  671W        W 1868   4.492   2.315   5.164
  672W        W 1869   6.124   5.431   3.999
  673W        W 1870   2.929   3.730   6.663
  674W        W 1871   4.720   2.586   0.151
  675W        W 1872   3.666   1.042   2.376
  676W        W 1873   4.892   0.678   3.118
  677W        W 1874   6.602   4.315   3.583
  678W        W 1875   5.543   6.725   3.066
  679W        W 1876   0.894   5.629   7.825
  680W        W 1877   1.349   4.504   5.750
  681W        W 1878   7.084   3.028   2.700
  682W        W 1879   5.809   4.553   3.736
  683W        W 1880   7.200   6.199   0.631
  684W        W 1881   7.508   3.429   0.331
  685W        W 1882   7.863   0.510   3.663
  686W        W 1883   0.355   1.834   0.726
  687W        W 1884   7.125   2.817   3.551
  688W        W 1885   6.192   5.055   6.704
  689W        W 1886   0.096   5.650   2.097
  690W        W 1887   5.053   5.760   2.776
  691W        W 1888   4.905   1.783   2.274
  692W        W 1889   2.920   7.448   6.800
  693W        W 1890   0.547   1.496   2.918
  694W        W 1891   0.045   5.409   0.230
  695W        W 1892   0.915   3.151   0.918
  696W        W 1893   3.496   1.107   2.959
  697W        W 1894   1.212   3.620   1.771
  698W        W 1895   0.202   1.289   7.218
  699W        W 1896   7.595   7.058   4.752
  700W        W 1897   5.221   7.081   1.783
  701W        W 1898   4.346   7.524   2.685
  702W        W 1899   2.680   2.372   6.812
  703W        W 1900   5.840   5.692   4.668
  704W        W 1901   4.265   1.979   4.152
  705W        W 1902   0.352   0.725   0.326
  706W        W 1903   0.531   2.365   5.632
  707W        W 1904   0.649   2.401   2.353
  708W        W 1905   1.721   3.936   3.585
  709W        W 1906   3.599   7.066   1.749
  710W        W 1907   6.342   3.027   5.733
  711W        W 1908   4.090   4.384   7.175
  712W        W 1909   5.545   4.090   2.682
  713W        W 1910   5.913   7.713   4.093
  714W        W 1911   3.245   6.402   1.144
  715W        W 1912   3.932   3.889   7.439
  716W        W 1913   5.110   0.302   7.294
  717W        W 1914   2.502   6.522   3.966
  718W        W 1915   4.040   7.897   1.758
  719W        W 1916   5.233   2.606   3.191
  720W        W 1917   5.567   7.716   0.647
  721W        W 1918   4.869   1.991   7.449
  722W        W 1919   3.390   3.753   2.940
  723W        W 1920   3.202   6.231   7.403
  724W        W 1921   1.524   6.920   4.096
  725W        W 1922   1.421   1.412   3.028
  726W        W 1923   2.017   4.018   0.446
  727W        W 1924   2.558   2.666   6.394
  728W        W 1925   4.214   0.131   6.769
  729W        W 1926   7.147   2.379   4.286
  730W        W 1927   3.022   1.017   1.382
  731W        W 1928   2.562   1.742   0.562
  732W        W 1929   3.171   7.858   5.933
  733W        W 1930   5.918   1.346   4.481
  734W        W 1931   7.354   5.835   6.709
  735W        W 1932   1.637   3.652   1.536
  736W        W 1933   4.056   4.719   5.852
  737W        W 1934   5.083   0.796   4.373
  738W        W 1935   3.569   7.764   1.852
  739W        W 1936   3.311   0.291   3.292
  740W        W 1937   1.888   2.036   1.124
  741W        W 1938   5.900   4.482   7.822
  742W        W 1939   2.393   6.021   7.142
  743W        W 1940   3.922   4.919   2.477
  744W        W 1941   3.175   1.203   2.536
  745W        W 1942   4.765   0.817   1.985
  746W        W 1943   0.138   4.991   3.804
  747W        W 1944   6.678   2.203   6.575
  748W        W 1945   4.582   7.078   7.520
  749W        W 1946   1.420   6.824   7.049
  750W        W 1947   2.137   6.064   3.184
  751W        W 1948   5.599   1.795   1.442
  752W        W 1949   3.814   6.348   3.067
  753W        W 1950   3.896   0.582   2.569
  754W        W 1951   7.838   7.938   6.760
  755W        W 1952   5.724   3.797   7.221
  756W        W 1953   4.748   0.991   5.906
  757W        W 1954   1.694   6.996   6.608
  758W        W 1955   6.550   6.219   6.919
  759W        W 1956   4.141   2.484   1.491
  760W        W 1957   4.366   4.879   1.892
  761W        W 1958   4.322   4.220   2.198
  762W        W 1959   7.712   6.556   5.491
  763W        W 1960   6.681   0.257   1.311
  764W        W 1961   6.360   0.096   6.675
  765W        W 1962   3.641   2.035   4.803
  766W        W 1963   5.137   0.074   6.827
  767W        W 1964   7.127   1.857   4.383
  768W        W 1965   1.201   2.145   0.449
  769W        W 1966   6.194   7.259   6.684
  770W        W 1967   3.286   6.929   2.196
  771W        W 1968   7.891   6.294   0.069
  772W        W 1969   1.462   2.385   3.446
  773W        W 1970   6.538   2.591   5.035
  774W        W 1971   6.993   6.038   1.494
  775W        W 1972   6.291   2.003   5.622
  776W        W 1973   6.843   6.613   4.968
  777W        W 1974   1.628   5.686   7.034
  778W        W 1975   3.695   6.274   7.428
  779W        W 1976   7.188   6.624   5.549
  780W        W 1977   3.745   5.473   2.203
  781W        W 1978   2.387   1.610   3.010
  782W        W 1979   2.750   7.132   5.512
  783W        W 1980   1.472   4.161   3.223
  784W        W 1981   3.574   6.717   1.410
  785W        W 1982   5.807   3.849   2.025
  786W        W 1983   4.042   6.809   2.948
  787W        W 1984   5.793   4.260   3.313
  788W        W 1985   6.593   6.010   1.145
  789W        W 1986   3.303   7.064   4.739
  790W        W 1987   5.584   4.019   1.010
  791W        W 1988   4.137   1.128   2.129
  792W        W 1989   3.710   2.616   7.064
  793W        W 1990   7.193   3.845   6.617
  794W        W 1991   3.496   1.347   0.700
  795W        W 1992   4.900   1.727   0.701
  796W        W 1993   5.959   1.680   4.854
  797W        W 1994   4.010   1.473   0.865
  798W        W 1995   6.760   3.430   2.768
  799W        W 1996   2.220   5.611   5.922
  800W        W 1997   5.565   4.482   1.544
  801W        W 1998   0.017   2.878   5.815
  802W        W 1999   5.654   3.685   5.857
  803W        W 2000   4.875   6.902   5.078
  804W        W 2001   0.603   3.088   3.538
  805W        W 2002   2.782   0.548   7.621
  806W        W 2003   0.824   2.973   4.029
  807W        W 2004   3.367   0.318   5.128
  808W        W 2005   4.797   7.291   3.383
  809W        W 2006   2.473   6.320   6.284
  810W        W 2007   2.664   7.910   6.859
  811W        W 2008   7.209   0.112   5.633
  812W        W 2009   5.711   6.140   6.348
  813W        W 2010   6.674   2.198   4.234
  814W        W 2011   1.742   2.104   3.805
  815W        W 2012   6.076   2.859   0.746
  816W        W 2013   6.840   2.037   1.491
  817W        W 2014   4.746   7.648   6.686
  818W        W 2015   6.275   7.544   1.196
  819W        W 2016   1.311   2.704   1.901
  820W        W 2017   5.397   2.054   0.944
  821W        W 2018   6.285   2.643   0.354
  822W        W 2019   3.694   0.903   0.452
  823W        W 2020   1.893   0.839   0.304
  824W        W 2021   0.295   2.665   3.303
  825W        W 2022   7.060   2.886   2.249
  826W        W 2023   7.262   3.375   4.721
  827W        W 2024   4.021   3.014   6.903
  828W        W 2025   1.218   0.494   3.184
  829W        W 2026   0.889   0.470   6.247
  830W        W 2027   1.938   1.209   7.165
  831W        W 2028   2.027   1.006   3.859
  832W        W 2029   3.078   3.706   0.687
  833W        W 2030   0.735   2.826   3.144
  834W        W 2031   5.556   0.551   6.714
  835W        W 2032   6.728   3.740   2.280
  836W        W 2033   5.114   4.551   0.243
  837W        W 2034   0.496   5.291   6.603
  838W        W 2035   3.944   7.955   0.814
  839W        W 2036   0.546   3.519   6.411
  840W        W 2037   2.529   7.416   0.197
  841W        W 2038   0.703   1.015   5.857
  842W        W 2039   7.105   6.582   2.538
  843W        W 2040   5.293   4.796   6.354
  844W        W 2041   1.332   0.205   1.773
  845W        W 2042   4.667   0.544   5.546
  846W        W 2043   5.235   5.420   5.229
  847W        W 2044   5.804   2.667   1.240
  848W        W 2045   5.441   2.297   0.320
  849W        W 2046   4.362   1.525   5.319
  850W        W 2047   7.313   0.298   1.797
  851W        W 2048   0.001   1.151   2.642
  852W        W 2049   3.087   7.268   4.331
  853W        W 2050   2.723   7.498   7.370
  854W        W 2051   1.157   0.291   0.019
  855W        W 2052   0.068   3.400   6.557
  856W        W 2053   3.296   3.517   5.610
  857W        W 2054   4.511   5.557   4.874
  858W        W 2055   5.860   4.474   0.835
  859W        W 2056   3.140   5.477   4.628
  860W        W 2057   6.893   6.693   6.422
  861W        W 2058   4.391   2.575   3.360
  862W        W 2059   2.906   6.379   4.289
  863W        W 2060   0.478   0.095   5.483
  864W        W 2061   3.712   2.699   1.305
  865W        W 2062   1.796   1.134   5.320
  866W        W 2063   4.092   2.239   3.547
  867W        W 2064   5.036   3.241   1.043
  868W        W 2065   6.763   3.246   7.585
  869W        W 2066   7.846   6.979   6.494
  870W        W 2067   2.943   6.998   3.799
  871W        W 2068   6.608   1.653   0.232
  872W        W 2069   1.326   5.599   6.604
  873W        W 2070   0.515   7.604   2.725
  874W        W 2071   2.104   3.453   2.841
  875W        W 2072   6.428   6.822   5.303
  876W        W 2073   5.360   4.774   6.942
  877W        W 2074   3.958   6.118   6.932
  878W        W 2075   4.563   5.871   1.652
  879W        W 2076   0.526   5.648   5.930
  880W        W 2077   6.941   6.530   3.030
  881W        W 2078   5.805   4.177   6.037
  882W        W 2079   7.004   1.155   1.234
  883W        W 2080   0.388   3.811   5.758
  884W        W 2081   4.005   3.468   7.190
  885W        W 2082   6.670   0.107   7.514
  886W        W 2083   5.202   7.213   4.833
  887W        W 2084   4.491   2.303   7.446
  888W        W 2085   4.296   4.753   2.859
  889W        W 2086   2.726   5.544   0.325
  890W        W 2087   3.337   2.878   3.083
  891W        W 2088   3.582   0.331   2.203
  892W        W 2089   6.898   1.536   4.724
  893W        W 2090   2.483   1.644   3.901
  894W        W 2091   5.851   5.987   3.251
  895W        W 2092   4.864   5.840   1.046
  896W        W 2093   6.844   3.175   3.995
  897W        W 2094   0.518   3.301   1.767
  898W        W 2095   5.552   1.919   4.293
  899W        W 2096   6.644   6.410   3.846
  900W        W 2097   5.767   1.207   5.472
  901W        W 2098   7.590   5.210   7.218
  902W        W 2099   6.334   2.871   1.214
  903W        W 2100   7.759   4.400   7.436
  904W        W 2101   1.164   0.380   1.302
  905W        W 2102   1.428   5.400   5.470
  906W        W 2103   7.012   3.763   1.423
  907W        W 2104   2.536   2.445   3.485
  908W        W 2105   1.085   2.146   3.233
  909W        W 2106   2.839   4.805   5.160
  910W        W 2107   0.454   3.077   0.898
  911W        W 2108   4.396   0.151   0.998
  912W        W 2109   3.757   0.708   5.103
  913W        W 2110   4.030   5.915   7.447
  914W        W 2111   5.179   7.568   1.086
  915W        W 2112   3.198   1.616   3.374
  916W        W 2113   7.319   5.022   0.938
  917W        W 2114   6.514   6.061   2.216
  918W        W 2115   3.013   2.894   6.527
  919W        W 2116   5.527   2.920   0.879
  920W        W 2117   7.000   1.626   3.893
  921W        W 2118   6.018   0.832   1.040
  922W        W 2119   3.547   2.545   2.758
  923W        W 2120   1.077   0.354   4.798
  924W        W 2121   2.600   5.145   3.858
  925W        W 2122   6.357   6.420   4.224
  926W        W 2123   2.504   2.739   0.926
  927W        W 2124   2.973   3.959   2.779
  928W        W 2125   7.246   1.188   5.668
  929W        W 2126   5.555   0.154   7.125
  930W        W 2127   4.456   7.403   5.796
  931W        W 2128   4.675   2.752   1.870
  932W        W 2129   4.158   4.184   3.586
  933W        W 2130   2.269   6.175   1.319
  934W        W 2131   0.625   5.859   1.817
  935W        W 2132   4.490   2.764   5.433
  936W        W 2133   6.730   3.597   1.028
  937W        W 2134   7.406   6.131   6.248
  938W        W 2135   7.332   7.423   1.373
  939W        W 2136   4.591   4.252   3.345
  940W        W 2137   4.236   3.011   7.500
  941W        W 2138   1.180   6.272   4.569
  942W        W 2139   6.335   6.960   4.023
  943W        W 2140   3.501   0.218   0.224
  944W        W 2141   3.316   5.053   5.264
  945W        W 2142   7.415   4.354   2.392
  946W        W 2143   2.056   1.011   2.319
  947W        W 2144   6.751   7.606   6.813
  948W        W 2145   6.567   3.433   6.491
  949W        W 2146   4.902   7.280   1.376
  950W        W 2147   4.602   6.999   0.081
  951W        W 2148   6.280   6.292   7.885
  952W        W 2149   0.941   6.014   0.318
  953W        W 2150   6.389   7.684   2.789
  954W        W 2151   0.843   4.714   3.298
  955W        W 2152   1.900   0.251   4.031
  956W        W 2153   5.108   6.126   4.576
  957W        W 2154   5.227   4.048   0.225
  958W        W 2155   5.713   1.745   1.961
  959W        W 2156   2.799   3.654   3.432
  960W        W 2157   3.530   7.966   7.123
  961W        W 2158   6.268   4.709   2.901
  962W        W 2159   5.641   5.643   3.982
  963W        W 2160   7.776   5.874   7.021
  964W        W 2161   4.843   4.339   0.739
  965W        W 2162   6.335   5.614   1.370
  966W        W 2163   0.195   1.231   0.158
  967W        W 2164   0.354   7.844   6.757
  968W        W 2165   7.146   0.763   5.058
  969W        W 2166   7.476   2.066   4.116
  970W        W 2167   3.928   6.100   6.005
  971W        W 2168   1.569   5.996   5.173
  972W        W 2169   4.949   4.583   3.597
  973W        W 2170   1.693   3.645   5.545
  974W        W 2171   1.664   3.058   4.620
  975W        W 2172   6.564   2.752   0.738
  976W        W 2173   2.044   4.616   6.907
  977W        W 2174   4.830   4.724   1.087
  978W        W 2175   3.505   2.500   0.225
  979W        W 2176   5.833   5.746   1.482
  980W        W 2177   7.628   3.244   1.543
  981W        W 2178   5.518   2.090   3.465
  982W        W 2179   2.215   3.016   6.558
  983W        W 2180   6.436   0.366   3.845
  984W        W 2181   7.726   2.999   7.922
  985W        W 2182   6.981   4.385   5.350
  986W        W 2183   1.697   7.012   2.333
  987W        W 2184   2.470   5.045   6.798
  988W        W 2185   2.699   4.150   4.825
  989W        W 2186   0.897   3.350   1.464
  990W        W 2187   3.471   5.128   2.408
  991W        W 2188   3.724   1.509   3.200
  992W        W 2189   4.354   7.543   3.313
  993W        W 2190   3.507   3.142   5.294
  994W        W 2191   5.145   6.054   6.881
  995W        W 2192   3.004   0.352   0.136
  996W        W 2193   5.241   3.473   4.395
  997W        W 2194   4.364   0.457   7.512
  998W        W 2195   5.168   0.548   2.339
  999W        W 2196   1.032   4.046   6.922
 1000W        W 2197   4.476   0.410   1.428
 1001W        W 2198   2.368   6.709   7.733
 1002W        W 2199   5.465   5.845   0.242
 1003W        W 2200   3.378   4.676   0.238
 1004W        W 2201   5.398   2.125   6.481
 1005W        W 2202   4.562   1.263   0.791
 1006W        W 2203   1.465   6.290   7.881
 1007W        W 2204   4.891   6.400   5.183
 1008W        W 2205   2.804   7.722   6.385
 1009W        W 2206   0.775   7.207   6.385
 1010W        W 2207   1.403   1.589   1.921
 1011W        W 2208   1.342   1.666   2.598
 1012W        W 2209   2.191   2.901   7.545
 1013W        W 2210   6.060   1.427   2.206
 1014W        W 2211   5.338   1.827   0.456
 1015W        W 2212   2.874   4.892   1.459
 1016W        W 2213   1.834   0.195   2.522
 1017W        W 2214   6.239   7.300   5.351
 1018W        W 2215   4.969   4.629   2.548
 1019W        W 2216   0.777   3.832   3.508
 1020W        W 2217   5.149   6.670   6.909
 1021W        W 2218   7.465   2.577   3.265
 1022W        W 2219   1.638   2.544   6.727
 1023W        W 2220   0.385   4.034   4.797
 1024W        W 2221   6.067   3.769   3.175
 1025W        W 2222   0.482   1.379   5.674
 1026W        W 2223   0.242   4.853   3.310
 1027W        W 2224   3.938   1.744   6.996
 1028W        W 2225   0.786   3.743   2.892
 1029W        W 2226   4.999   6.683   5.574
 1030W        W 2227   1.681   4.256   4.748
 1031W        W 2228   0.938   1.418   6.009
 1032W        W 2229   5.440   4.797   3.544
 1033W        W 2230   1.130   4.601   0.022
 1034W        W 2231   4.667   0.450   5.005
 1035W        W 2232   5.143   1.691   1.760
 1036W        W 2233   6.608   3.807   1.743
 1037W        W 2234   0.386   0.180   0.625
 1038W        W 2235   4.866   2.164   0.978
 1039W        W 2236   7.818   0.030   0.051
 1040W        W 2237   1.154   2.878   1.361
 1041W        W 2238   1.303   5.078   1.776
 1042W        W 2239   0.217   5.175   1.127
 1043W        W 2240   2.460   5.193   5.213
 1044W        W 2241   3.241   7.779   2.356
 1045W        W 2242   6.462   0.782   4.379
 1046W        W 2243   5.998   1.762   4.130
 1047W        W 2244   1.353   3.223   6.577
 1048W        W 2245   2.632   3.609   0.299
 1049W        W 2246   6.247   1.885   2.814
 1050W        W 2247   0.791   3.735   5.499
 1051W        W 2248   6.061   1.630   1.049
 1052W        W 2249   4.359   1.204   1.277
 1053W        W 2250   7.505   0.577   6.032
 1054W        W 2251   2.201   1.277   5.682
 1055W        W 2252   7.471   0.804   3.433
 1056W        W 2253   4.863   6.071   2.328
 1057W        W 2254   0.007   7.473   7.485
 1058W        W 2255   0.304   6.595   0.094
 1059W        W 2256   6.980   3.724   5.751
 1060W        W 2257   0.667   1.209   3.347
 1061W        W 2258   6.712   4.690   7.639
 1062W        W 2259   1.447   1.939   2.961
 1063W        W 2260   3.201   5.503   0.365
 1064W        W 2261   0.985   5.964   3.333
 1065W        W 2262   6.265   4.431   5.015
 1066W        W 2263   6.228   7.698   3.540
 1067W        W 2264   3.817   0.298   5.391
 1068W        W 2265   2.476   0.913   7.524
 1069W        W 2266   6.121   3.427   7.186
 1070W        W 2267   4.966   3.303   3.037
 1071W        W 2268   7.640   7.552   7.172
 1072W        W 2269   2.261   0.455   0.278
 1073W        W 2270   0.618   6.358   1.648
 1074W        W 2271   5.950   2.835   4.406
 1075W        W 2272   3.541   0.154   2.723
 1076W        W 2273   3.276   2.798   1.962
 1077W        W 2274   6.605   4.633   3.981
 1078W        W 2275   3.938   4.747   0.571
 1079W        W 2276   3.676   6.414   3.541
 1080W        W 2277   0.629   1.559   1.554
 1081W        W 2278   5.639   1.258   2.512
 1082W        W 2279   6.580   2.519   7.484
 1083W        W 2280   3.073   6.453   2.278
 1084W        W 2281   4.136   5.789   0.177
 1085W        W 2282   6.582   2.142   0.206
 1086W        W 2283   7.066   7.436   4.566
 1087W        W 2284   7.386   2.328   6.003
 1088W        W 2285   4.086   7.244   4.600
 1089W        W 2286   4.753   6.501   4.682
 1090W        W 2287   7.787   1.222   1.973
 1091W        W 2288   2.719   3.061   6.067
 1092W        W 2289   3.989   1.950   5.393
 1093W        W 2290   4.207   2.560   7.067
 1094W        W 2291   3.163   6.994   1.347
 1095W        W 2292   7.860   4.910   5.399
 1096W        W 2293   7.415   4.168   0.704
 1097W        W 2294   6.256   1.267   4.194
 1098W        W 2295   3.739   5.514   1.710
 1099W        W 2296   3.727   2.511   2.244
 1100W        W 2297   4.923   1.444   5.399
 1101W        W 2298   2.640   2.948   4.716
 1102W        W 2299   3.330   4.647   6.497
 1103W        W 2300   2.232   2.089   3.938
 1104W        W 2301   5.287   2.289   7.423
 1105W        W 2302   3.494   5.968   3.092
 1106W        W 2303   5.105   5.474   6.177
 1107W        W 2304   7.078   6.166   5.351
 1108W        W 2305   6.122   1.669   0.272
 1109W        W 2306   0.562   6.696   4.224
 1110W        W 2307   7.264   2.924   4.477
 1111W        W 2308   4.618   4.853   5.774
 1112W        W 2309   5.446   0.715   3.238
 1113W        W 2310   1.736   7.025   0.934
 1114W        W 2311   4.487   5.108   6.605
 1115W        W 2312   6.668   2.283   5.422
 1116W        W 2313   3.832   3.164   3.826
 1117W        W 2314   1.718   5.164   5.019
 1118W        W 2315   5.900   4.294   2.348
 1119W        W 2316   4.167   7.871   5.845
 1120W        W 2317   3.500   4.993   3.530
 1121W        W 2318   1.456   6.088   6.783
 1122W        W 2319   0.721   5.777   4.064
 1123W        W 2320   6.049   4.942   5.816
 1124W        W 2321   4.093   7.270   4.077
 1125W        W 2322   4.486   1.512   3.592
 1126W        W 2323   6.821   2.684   4.519
 1127W        W 2324   7.591   1.988   3.057
 1128W        W 2325   4.662   3.662   5.389
 1129W        W 2326   3.102   2.998   5.602
 1130W        W 2327   2.564   0.491   4.434
 1131W        W 2328   6.150   4.255   5.563
 1132W        W 2329   2.932   6.778   4.683
 1133W        W 2330   0.834   4.074   5.082
 1134W        W 2331   0.487   1.568   6.136
 1135W        W 2332   1.649   2.257   0.717
 1136W        W 2333   3.816   3.033   2.810
 1137W        W 2334   7.100   3.206   5.790
 1138W        W 2335   0.980   6.467   3.292
 1139W        W 2336   3.674   6.573   5.610
 1140W        W 2337   6.041   4.914   7.650
 1141W        W 2338   1.498   1.382   4.905
 1142W        W 2339   4.399   2.224   1.137
 1143W        W 2340   1.079   0.800   4.328
 1144W        W 2341   6.991   5.747   0.853
 1145W        W 2342   3.953   0.469   0.623
 1146W        W 2343   5.560   2.026   4.787
 1147W        W 2344   5.736   6.995   6.161
 1148W        W 2345   4.503   2.133   5.680
 1149W        W 2346   0.339   7.377   1.948
 1150W        W 2347   0.921   6.228   2.177
 1151W        W 2348   1.817   7.156   7.400
 1152W        W 2349   1.042   6.311   7.583
 1153W        W 2350   1.148   4.542   6.912
 1154W        W 2351   6.086   5.191   1.483
 1155W        W 2352   6.891   5.013   7.314
 1156W        W 2353   4.201   3.828   2.580
 1157W        W 2354   6.918   4.515   6.020
 1158W        W 2355   7.212   6.156   2.290
 1159W        W 2356   4.420   4.149   5.220
 1160W        W 2357   6.741   2.980   6.628
 1161W        W 2358   2.993   6.432   0.665
 1162W        W 2359   5.777   5.716   7.713
 1163W        W 2360   1.153   2.669   0.473
 1164W        W 2361   6.464   2.630   6.372
 1165W        W 2362   1.910   7.212   0.497
 1166W        W 2363   2.532   6.671   0.820
 1167W        W 2364   4.139   7.036   1.675
 1168W        W 2365   3.777   5.041   3.983
 1169W        W 2366   6.230   5.550   1.949
 1170W        W 2367   1.666   2.182   2.557
 1171W        W 2368   2.492   6.273   2.169
 1172W        W 2369   2.663   7.517   0.802
 1173W        W 2370   6.420   2.814   4.139
 1174W        W 2371   2.111   3.553   1.486
 1175W        W 2372   0.056   0.427   2.832
 1176W        W 2373   1.117   7.647   6.069
 1177W        W 2374   6.219   5.873   6.812
 1178W        W 2375   2.025   3.961   7.673
 1179W        W 2376   2.661   4.839   5.864
 1180W        W 2377   5.243   3.528   3.408
 1181W        W 2378   4.343   4.692   5.384
 1182W        W 2379   5.340   6.059   2.541
 1183W        W 2380   4.344   3.901   3.061
 1184W        W 2381   1.347   6.122   2.686
 1185W        W 2382   2.514   3.844   0.708
 1186W        W 2383   6.884   0.578   7.417
 1187W        W 2384   2.943   0.783   2.344
 1188W        W 2385   4.079   6.023   4.351
 1189W        W 2386   4.425   1.954   7.083
 1190W        W 2387   3.688   2.512   3.309
 1191W        W 2388   0.232   6.549   0.771
 1192W        W 2389   0.591   5.175   3.517
 1193W        W 2390   4.496   2.126   2.183
 1194W        W 2391   4.290   5.304   1.647
 1195W        W 2392   5.587   2.360   1.548
 1196W        W 2393   3.412   2.518   6.484
 1197W        W 2394   1.800   6.958   4.553
 1198W        W 2395   6.351   1.034   2.079
 1199W        W 2396   0.347   5.778   5.098
 1200W        W 2397   6.373   3.359   3.339
 1201W        W 2398   6.455   5.133   2.675
 1202W        W 2399   5.481   0.448   7.577
 1203W        W 2400   4.876   1.732   6.991
 1204W        W 2401   0.850   0.708   2.890
 1205W        W 2402   1.607   3.627   7.575
 1206W        W 2403   4.993   6.619   1.777
 1207W        W 2404   6.302   6.449   0.468
 1208W        W 2405   2.023   4.775   4.566
 1209W        W 2406   5.914   2.344   3.234
 1210W        W 2407   2.946   3.010   7.081
 1211W        W 2408   0.403   0.677   2.529
 1212W        W 2409   3.607   4.399   5.713
 1213W        W 2410   6.651   4.122   5.875
 1214W        W 2411   6.839   0.103   0.252
 1215W        W 2412   3.229   2.330   2.286
 1216W        W 2413   1.304   2.260   7.257
 1217W        W 2414   0.355   6.905   2.535
 1218W        W 2415   6.922   4.117   1.982
 1219W        W 2416   6.060   5.321   2.393
 1220W        W 2417   3.362   7.821   7.687
 1221W        W 2418   3.696   3.430   6.748
 1222W        W 2419   6.034   3.740   0.950
 1223W        W 2420   3.315   4.899   2.817
 1224W        W 2421   5.217   4.981   5.881
 1225W        W 2422   0.594   0.090   6.022
 1226W        W 2423   5.230   5.305   1.880
 1227W        W 2424   3.032   1.755   2.519
 1228W        W 2425   4.184   5.626   5.296
 1229W        W 2426   2.294   6.490   1.731
 1230W        W 2427   5.000   2.260   2.551
 1231W        W 2428   5.754   4.647   7.351
 1232W        W 2429   4.997   6.915   4.465
 1233W        W 2430   3.596   2.501   0.732
 1234W        W 2431   0.936   4.322   6.089
 1235W        W 2432   0.833   7.622   6.778
 1236W        W 2433   4.062   5.318   4.870
 1237W        W 2434   2.040   0.260   5.024
 1238W        W 2435   3.889   6.723   7.542
 1239W        W 2436   1.014   0.208   4.188
 1240W        W 2437   0.862   6.538   0.251
 1241W        W 2438   5.894   7.172   3.957
 1242W        W 2439   1.124   3.015   2.735
 1243W        W 2440   0.300   4.453   6.463
 1244W        W 2441   1.384   3.156   1.782
 1245W        W 2442   3.578   1.992   7.916
 1246W        W 2443   0.285   5.537   3.614
 1247W        W 2444   0.325   0.641   1.620
 1248W        W 2445   1.853   7.749   2.223
 1249W        W 2446   5.461   4.541   2.447
 1250W        W 2447   1.550   0.760   5.615
 1251W        W 2448   0.517   7.623   7.632
 1252W        W 2449   3.356   7.307   0.143
 1253W        W 2450   5.951   7.552   2.617
 1254W        W 2451   4.165   0.077   3.431
 1255W        W 2452   0.764   5.254   4.025
 1256W        W 2453   7.025   4.993   6.147
 1257W        W 2454   1.355   0.207   2.311
 1258W        W 2455   6.591   2.008   1.994
 1259W        W 2456   2.815   2.610   7.300
 1260W        W 2457   6.963   0.777   3.486
 1261W        W 2458   6.482   3.851   2.716
 1262W        W 2459   5.027   1.383   6.502
 1263W        W 2460   3.985   7.425   0.898
 1264W        W 2461   0.061   1.487   5.192
 1265W        W 2462   4.114   0.242   2.343
 1266W        W 2463   4.686   0.030   7.445
 1267W        W 2464   2.811   2.637   5.717
 1268W        W 2465   5.301   0.539   0.683
 1269W        W 2466   3.173   1.837   7.517
 1270W        W 2467   0.429   5.027   5.229
 1271W        W 2468   7.601   7.132   5.439
 1272W        W 2469   1.914   4.956   0.181
 1273W        W 2470   5.814   0.605   7.206
 1274W        W 2471   2.414   3.338   3.550
 1275W        W 2472   5.947   0.852   4.478
 1276W        W 2473   7.072   0.464   5.924
 1277W        W 2474   7.451   4.429   0.239
 1278W        W 2475   5.108   5.571   3.873
 1279W        W 2476   6.119   4.913   3.718
 1280W        W 2477   7.708   1.714   7.231
 1281W        W 2478   1.076   5.248   4.481
 1282W        W 2479   3.882   7.454   1.443
 1283W        W 2480   7.136   7.857   5.127
 1284W        W 2481   4.823   2.843   3.268
 1285W        W 2482   1.508   2.550   1.237
 1286W        W 2483   3.943   0.452   6.544
 1287W        W 2484   7.671   4.616   1.903
 1288W        W 2485   4.984   0.197   5.627
 1289W        W 2486   2.006   2.364   7.588
 1290W        W 2487   1.266   3.859   5.422
 1291W        W 2488   4.074   1.852   1.220
 1292W        W 2489   2.767   6.856   2.116
 1293W        W 2490   2.694   1.833   6.786
 1294W        W 2491   1.776   3.968   1.882
 1295W        W 2492   1.433   6.839   5.911
 1296W        W 2493   0.937   6.741   7.292
 1297W        W 2494   3.873   2.918   0.695
 1298W        W 2495   5.136   5.654   2.250
 1299W        W 2496   5.669   0.753   6.255
 1300W        W 2497   2.224   1.472   2.370
 1301W        W 2498   3.789   6.089   2.538
 1302W        W 2499   2.176   6.495   3.556
 1303W        W 2500   3.637   6.393   4.251
 1304W        W 2501   4.946   7.098   3.972
 1305W        W 2502   2.105   6.729   6.482
 1306W        W 2503   0.188   7.660   5.751
 1307W        W 2504   6.740   4.741   2.733
 1308W        W 2505   2.082   3.323   4.749
 1309W        W 2506   5.952   6.594   1.539
 1310W        W 2507   3.296   2.774   7.354
 1311W        W 2508   2.922   5.931   5.199
 1312W        W 2509   5.128   4.140   2.311
 1313W        W 2510   4.899   1.989   5.242
 1314W        W 2511   6.758   2.202   4.719
 1315W        W 2512   5.590   6.386   6.761
 1316W        W 2513   1.693   7.448   6.320
 1317W        W 2514   0.718   1.108   1.178
 1318W        W 2515   5.579   3.161   7.796
 1319W        W 2516   4.543   5.476   0.451
 1320W        W 2517   1.112   3.647   0.840
 1321W        W 2518   4.908   4.412   5.364
 1322W        W 2519   7.587   5.823   0.334
 1323W        W 2520   7.290   1.129   3.799
 1324W        W 2521   3.714   2.040   1.465
 1325W        W 2522   7.237   5.494   2.855
 1326W        W 2523   1.778   6.030   1.271
 1327W        W 2524   7.591   2.620   1.561
 1328W        W 2525   1.116   5.761   4.478
 1329W        W 2526   5.633   5.043   6.633
 1330W        W 2527   7.688   3.141   4.289
 1331W        W 2528   3.902   6.224   5.291
 1332W        W 2529   7.548   7.130   7.445
 1333W        W 2530   4.078   6.811   1.228
 1334W        W 2531   7.313   4.817   7.484
 1335W        W 2532   7.388   6.661   7.393
 1336W        W 2533   2.617   2.730   5.294
 1337W        W 2534   0.529   5.970   3.629
 1338W        W 2535   1.082   5.121   3.580
 1339W        W 2536   6.769   6.635   7.704
 1340W        W 2537   0.164   6.131   6.648
 1341W        W 2538   1.351   0.689   0.338
 1342W        W 2539   0.785   4.239   2.560
 1343W        W 2540   5.822   4.122   0.417
 1344W        W 2541   3.554   3.598   7.563
 1345W        W 2542   0.559   3.992   6.820
 1346W        W 2543   1.324   3.160   2.276
 1347W        W 2544   1.894   1.102   7.970
 1348W        W 2545   4.534   1.931   3.184
 1349W        W 2546   1.318   0.987   7.823
 1350W        W 2547   5.751   4.630   2.029
 1351W        W 2548   2.358   2.337   7.234
 1352W        W 2549   5.394   7.332   3.924
 1353W        W 2550   1.932   6.657   7.394
 1354W        W 2551   5.947   3.208   1.205
 1355W        W 2552   6.251   4.531   2.084
 1356W        W 2553   5.677   0.823   1.485
 1357W        W 2554   0.181   0.313   7.472
 1358W        W 2555   4.046   2.412   5.076
 1359W        W 2556   0.514   7.411   3.602
 1360W        W 2557   1.272   7.091   6.285
 1361W        W 2558   4.540   2.522   6.452
 1362W        W 2559   3.530   0.381   6.928
 1363W        W 2560   7.183   0.281   0.651
 1364W        W 2561   7.941   6.739   7.309
 1365W        W 2562   5.642   1.206   5.954
 1366W        W 2563   3.708   0.045   6.418
 1367W        W 2564   5.034   1.272   4.762
 1368W        W 2565   0.590   4.329   2.097
 1369W        W 2566   1.725   4.283   6.180
 1370W        W 2567   4.089   2.308   3.037
 1371W        W 2568   3.429   0.065   4.510
 1372W        W 2569   6.949   0.172   3.822
 1373W        W 2570   2.652   5.645   1.216
 1374W        W 2571   6.126   6.337   3.747
 1375W        W 2572   6.615   3.402   5.975
 1376W        W 2573   1.999   3.934   4.185
 1377W        W 2574   0.093   1.727   6.402
 1378W        W 2575   3.957   7.669   5.072
 1379W        W 2576   1.754   2.981   6.474
 1380W        W 2577   6.848   5.103   3.094
 1381W        W 2578   5.235   1.803   2.756
 1382W        W 2579   1.685   1.293   0.421
 1383W        W 2580   3.094   5.313   2.624
 1384W        W 2581   7.130   4.711   6.527
 1385W        W 2582   5.257   2.207   6.949
 1386W        W 2583   1.963   6.059   5.524
 1387W        W 2584   0.256   3.930   1.979
 1388W        W 2585   0.659   7.191   4.113
 1389W        W 2586   6.040   4.928   4.276
 1390W        W 2587   0.855   0.673   0.025
 1391W        W 2588   1.077   4.228   4.581
 1392W        W 2589   5.578   0.261   5.410
 1393W        W 2590   2.568   4.130   3.144
 1394W        W 2591   3.342   0.838   6.064
 1395W        W 2592   5.847   3.300   0.705
 1396W        W 2593   1.049   2.854   5.481
 1397W        W 2594   3.880   1.009   3.305
 1398W        W 2595   3.349   0.740   2.617
 1399W        W 2596   5.279   3.992   3.233
 1400W        W 2597   1.204   1.112   5.672
 1401W        W 2598   4.636   3.366   0.664
 1402W        W 2599   5.867   1.910   6.439
 1403W        W 2600   6.972   4.184   3.358
 1404W        W 2601   1.757   5.758   2.386
 1405W        W 2602   2.785   0.380   0.604
 1406W        W 2603   7.453   7.326   6.059
 1407W        W 2604   7.622   7.395   6.668
 1408W        W 2605   4.467   7.370   2.231
 1409W        W 2606   5.881   6.534   6.110
 1410W        W 2607   4.576   5.573   6.286
 1411W        W 2608   4.415   1.467   7.041
 1412W        W 2609   7.622   2.966   7.407
 1413W        W 2610   0.696   0.010   4.939
 1414W        W 2611   5.107   6.191   5.599
 1415W        W 2612   2.370   4.307   4.069
 1416W        W 2613   3.922   7.605   7.838
 1417W        W 2614   2.765   6.116   0.203
 1418W        W 2615   6.542   2.731   2.102
 1419W        W 2616   5.764   6.814   0.460
 1420W        W 2617   0.607   5.107   5.786
 1421W        W 2618   4.776   6.357   6.772
 1422W        W 2619   5.685   5.510   5.672
 1423W        W 2620   6.651   7.169   3.600
 1424W        W 2621   7.032   1.800   7.258
 1425W        W 2622   7.466   0.457   7.432
 1426W        W 2623   1.287   5.443   7.476
 1427W        W 2624   5.107   0.975   1.586
 1428W        W 2625   2.976   2.602   0.038
 1429W        W 2626   5.096   0.342   3.456
 1430W        W 2627   7.414   3.625   6.082
 1431W        W 2628   7.444   6.258   6.994
 1432W        W 2629   4.291   7.260   5.202
 1433W        W 2630   1.832   1.599   6.802
 1434W        W 2631   1.571   0.159   3.661
 1435W        W 2632   2.094   1.166   2.820
 1436W        W 2633   4.369   0.714   2.394
 1437W        W 2634   1.978   2.923   3.614
 1438W        W 2635   4.646   5.944   7.121
 1439W        W 2636   2.184   7.558   7.565
 1440W        W 2637   5.632   6.273   0.555
 1441W        W 2638   7.772   5.007   2.868
 1442W        W 2639   0.832   7.449   1.820
 1443W        W 2640   6.322   5.740   3.160
 1444W        W 2641   2.543   3.552   1.080
 1445W        W 2642   1.489   3.457   3.598
 1446W        W 2643   4.464   7.476   4.318
 1447W        W 2644   7.819   2.425   0.823
 1448W        W 2645   7.684   3.770   1.542
 1449W        W 2646   1.791   1.401   2.178
 1450W        W 2647   7.616   1.182   4.268
 1451W        W 2648   4.021   1.985   0.088
 1452W        W 2649   4.175   5.704   2.109
 1453W        W 2650   3.777   5.363   5.362
 1454W        W 2651   0.557   0.767   0.837
 1455W        W 2652   2.719   4.465   6.255
 1456W        W 2653   3.286   1.367   7.418
 1457W        W 2654   0.073   7.311   2.727
 1458W        W 2655   6.108   0.476   2.685
 1459W        W 2656   5.746   0.169   2.180
 1460W        W 2657   0.618   1.067   6.389
 1461W        W 2658   6.417   4.384   7.015
 1462W        W 2659   3.487   2.871   3.580
 1463W        W 2660   3.098   0.309   1.107
 1464W        W 2661   0.645   6.649   2.890
 1465W        W 2662   0.532   6.204   3.129
 1466W        W 2663   2.766   0.317   2.755
 1467W        W 2664   3.043   0.357   7.017
 1468W        W 2665   3.017   4.769   2.442
 1469W        W 2666   6.702   1.587   1.012
 1470W        W 2667   4.595   0.268   3.168
 1471W        W 2668   2.018   2.511   2.460
 1472W        W 2669   5.339   2.579   3.728
 1473W        W 2670   3.428   5.126   6.378
 1474W        W 2671   7.373   3.802   3.851
 1475W        W 2672   3.151   2.240   0.425
 1476W        W 2673   2.520   0.357   6.877
 1477W        W 2674   7.254   2.918   6.584
 1478W        W 2675   2.553   1.263   1.173
 1479W        W 2676   0.615   4.878   2.424
 1480W        W 2677   7.116   5.438   7.039
 1481W        W 2678   1.996   0.039   3.378
 1482W        W 2679   7.485   2.874   6.173
 1483W        W 2680   7.608   5.585   6.318
 1484W        W 2681   0.213   6.878   1.741
 1485W        W 2682   6.753   7.597   4.938
 1486W        W 2683   0.624   7.690   4.069
 1487W        W 2684   1.189   5.528   3.936
 1488W        W 2685   3.193   1.760   0.687
 1489W        W 2686   1.650   1.108   1.739
 1490W        W 2687   4.816   2.432   7.080
 1491W        W 2688   0.464   4.182   5.391
 1492W        W 2689   5.085   2.746   4.577
 1493W        W 2690   6.311   1.793   6.945
 1494W        W 2691   4.427   7.403   7.943
 1495W        W 2692   7.248   0.490   4.654
 1496W        W 2693   0.710   6.439   5.324
 1497W        W 2694   1.578   0.561   1.513
 1498W        W 2695   1.390   3.206   7.456
 1499W        W 2696   5.150   3.670   7.039
 1500W        W 2697   1.789   5.157   2.912
 1501W        W 2698   7.661   4.491   5.009
 1502W        W 2699   2.531   1.020   2.076
 1503W        W 2700   6.670   2.988   3.101
 1504W        W 2701   3.016   3.384   3.020
 1505W        W 2702   5.513   6.056   4.835
 1506W        W 2703   1.410   4.579   4.291
 1507W        W 2704   5.463   1.985   5.925
 1508W        W 2705   0.329   1.328   6.700
 1509W        W 2706   1.992   2.594   6.242
 1510W        W 2707   0.177   2.228   6.485
 1511W        W 2708   4.955   7.737   2.542
 1512W        W 2709   4.453   4.650   6.316
 1513W        W 2710   3.162   2.630   5.248
 1514W        W 2711   5.435   6.421   5.905
 1515W        W 2712   6.318   4.527   1.141
 1516W        W 2713   2.795   3.487   5.861
 1517W        W 2714   5.505   4.971   7.689
 1518W        W 2715   5.537   4.004   1.517
 1519W        W 2716   6.639   4.827   0.731
 1520W        W 2717   3.276   1.815   5.063
 1521W        W 2718   1.989   5.266   3.367
 1522W        W 2719   4.133   0.137   6.210
 1523W        W 2720   1.441   0.409   2.745
 1524W        W 2721   7.056   0.768   6.982
 1525W        W 2722   5.358   4.297   3.635
 1526W        W 2723   7.061   0.525   2.126
 1527W        W 2724   0.576   4.406   7.164
 1528W        W 2725   1.734   0.332   7.420
 1529W        W 2726   2.660   5.098   7.919
 1530W        W 2727   5.772   2.401   0.733
 1531W        W 2728   4.438   5.155   5.178
 1532W        W 2729   2.671   1.960   6.346
 1533W        W 2730   1.765   6.611   2.013
 1534W        W 2731   2.391   3.822   4.472
 1535W        W 2732   5.814   5.830   2.740
 1536W        W 2733   7.767   7.646   2.235
 1537W        W 2734   4.076   4.360   3.129
 1538W        W 2735   3.205   0.791   3.265
 1539W        W 2736   0.980   5.608   5.702
 1540W        W 2737   5.858   2.253   5.700
 1541W        W 2738   0.274   4.709   0.782
 1542W        W 2739   2.491   4.948   4.695
 1543W        W 2740   2.467   0.548   1.911
 1544W        W 2741   2.116   7.090   7.854
 1545W        W 2742   2.000   6.580   3.082
 1546W        W 2743   1.486   6.327   1.615
 1547W        W 2744   3.216   3.324   6.769
 1548W        W 2745   2.016   0.649   2.763
 1549W        W 2746   2.046   1.167   1.366
 1550W        W 2747   0.776   7.026   3.448
 1551W        W 2748   6.257   0.049   7.804
 1552W        W 2749   2.647   5.507   6.980
 1553W        W 2750   2.657   2.848   4.251
 1554W        W 2751   3.516   7.607   4.272
 1555W        W 2752   3.424   6.925   3.613
 1556W        W 2753   2.790   1.854   5.222
 1557W        W 2754   0.483   0.297   6.555
 1558W        W 2755   1.912   1.926   2.155
 1559W        W 2756   4.429   4.711   7.357
 1560W        W 2757   1.396   6.712   7.553
 1561W        W 2758   4.099   3.364   5.994
 1562W        W 2759   7.494   1.191   0.984
 1563W        W 2760   3.853   4.818   0.070
 1564W        W 2761   5.960   1.198   4.977
 1565W        W 2762   5.033   5.651   0.213
 1566W        W 2763   5.166   3.297   2.554
 1567W        W 2764   6.900   2.318   0.600
 1568W        W 2765   0.302   0.807   6.721
 1569W        W 2766   4.177   4.628   3.946
 1570W        W 2767   5.798   2.784   3.902
 1571W        W 2768   7.073   4.583   3.715
 1572W        W 2769   1.249   4.190   0.839
 1573W        W 2770   4.097   2.644   2.627
 1574W        W 2771   4.638   6.353   5.644
 1575W        W 2772   3.580   3.200   1.064
 1576W        W 2773   2.526   3.282   7.359
 1577W        W 2774   3.843   0.785   5.595
 1578W        W 2775   1.962   0.517   3.593
 1579W        W 2776   7.330   6.644   5.037
 1580W        W 2777   2.521   4.185   0.344
 1581W        W 2778   3.114   6.868   0.871
 1582W        W 2779   1.413   2.944   7.000
 1583W        W 2780   5.574   2.616   4.746
 1584W        W 2781   3.474   0.799   4.361
 1585W        W 2782   2.069   7.374   4.854
 1586W        W 2783   0.448   0.638   6.210
 1587W        W 2784   1.566   1.004   6.819
 1588W        W 2785   2.584   5.970   4.201
 1589W        W 2786   0.985   4.245   5.589
 1590W        W 2787   1.110   1.259   3.675
 1591W        W 2788   5.261   0.686   1.193
 1592W        W 2789   4.119   2.395   5.632
 1593W        W 2790   5.874   0.817   3.559
 1594W        W 2791   1.037   0.452   5.780
 1595W        W 2792   6.299   6.001   5.856
 1596W        W 2793   1.074   0.291   3.689
 1597W        W 2794   6.143   0.541   2.088
 1598W        W 2795   2.042   2.409   3.534
 1599W        W 2796   4.395   2.448   3.909
 1600W        W 2797   2.566   1.447   6.183
 1601W        W 2798   4.419   0.971   7.169
 1602W        W 2799   0.638   0.525   7.210
 1603W        W 2800   2.848   5.053   4.266
 1604W        W 2801   5.473   6.391   4.374
 1605W        W 2802   6.034   5.371   2.947
 1606W        W 2803   3.674   5.952   4.055
 1607W        W 2804   1.219   1.645   0.593
 1608W        W 2805   2.223   1.625   6.504
 1609W        W 2806   6.641   4.362   0.719
 1610W        W 2807   3.288   3.889   5.962
 1611W        W 2808   7.706   2.435   2.812
 1612W        W 2809   1.811   5.290   6.790
 1613W        W 2810   3.406   2.905   0.505
 1614W        W 2811   7.425   4.879   2.271
 1615W        W 2812   4.133   5.179   7.571
 1616W        W 2813   2.783   3.019   2.816
 1617W        W 2814   1.930   7.493   5.355
 1618W        W 2815   1.720   5.963   4.000
 1619W        W 2816   6.384   7.461   3.976
 1620W        W 2817   0.612   2.337   0.724
 1621W        W 2818   4.255   5.130   6.119
 1622W        W 2819   6.893   2.676   4.015
 1623W        W 2820   7.152   4.350   2.928
 1624W        W 2821   7.917   1.335   0.567
 1625W        W 2822   2.199   1.995   6.868
 1626W        W 2823   0.589   3.749   2.325
 1627W        W 2824   3.719   0.018   3.235
 1628W        W 2825   4.320   7.270   0.451
 1629W        W 2826   5.418   6.375   7.265
 1630W        W 2827   4.813   4.765   3.028
 1631W        W 2828   2.061   6.437   0.850
 1632W        W 2829   2.863   5.175   5.543
 1633W        W 2830   2.021   3.080   1.712
 1634W        W 2831   6.124   0.950   6.361
 1635W        W 2832   7.318   7.049   6.474
 1636W        W 2833   0.326   0.362   5.032
 1637W        W 2834   4.045   6.518   2.556
 1638W        W 2835   3.916   2.169   2.571
 1639W        W 2836   0.726   0.133   1.450
 1640W        W 2837   4.917   4.577   6.107
 1641W        W 2838   5.090   2.202   1.444
 1642W        W 2839   2.015   3.447   4.292
 1643W        W 2840   0.942   0.045   7.397
 1644W        W 2841   1.862   7.796   7.231
 1645W        W 2842   3.070   3.944   5.142
 1646W        W 2843   4.512   0.027   1.725
 1647W        W 2844   0.766   6.490   4.750
 1648W        W 2845   6.610   2.008   7.665
 1649W        W 2846   5.943   7.490   2.121
 1650W        W 2847   3.714   6.869   0.295
 1651W        W 2848   2.179   4.201   5.958
 1652W        W 2849   4.270   4.141   6.190
 1653W        W 2850   4.616   1.846   1.382
 1654W        W 2851   2.951   1.450   3.834
 1655W        W 2852   1.573   0.384   4.582
 1656W        W 2853   1.293   4.122   1.702
 1657W        W 2854   1.215   3.061   5.914
 1658W        W 2855   1.364   0.711   1.909
 1659W        W 2856   0.721   5.963   5.409
 1660W        W 2857   0.454   0.381   2.065
 1661W        W 2858   2.170   4.913   3.719
 1662W        W 2859   6.632   3.002   3.596
 1663W        W 2860   5.205   3.388   0.588
 1664W        W 2861   4.047   6.348   3.892
 1665W        W 2862   5.036   3.868   1.023
 1666W        W 2863   3.318   1.371   1.550
 1667W        W 2864   2.112   6.221   4.236
 1668W        W 2865   3.852   3.025   1.763
 1669W        W 2866   6.383   1.554   7.511
 1670W        W 2867   3.671   7.465   4.715
 1671W        W 2868   4.329   4.651   0.978
 1672W        W 2869   4.883   4.704   7.157
 1673W        W 2870   6.255   2.020   4.540
 1674W        W 2871   4.487   5.047   1.235
 1675W        W 2872   2.172   6.763   0.433
 1676W        W 2873   2.230   5.879   0.403
 1677W        W 2874   1.522   4.102   4.276
 1678W        W 2875   0.988   3.514   5.086
 1679W        W 2876   2.072   5.509   5.415
 1680W        W 2877   6.074   4.177   2.809
 1681W        W 2878   4.080   4.237   6.683
 1682W        W 2879   4.665   1.165   0.297
 1683W        W 2880   0.621   6.282   2.585
 1684W        W 2881   4.929   5.654   6.654
 1685W        W 2882   4.505   1.092   6.669
 1686W        W 2883   0.290   6.139   6.042
 1687W        W 2884   7.285   7.605   3.871
 1688W        W 2885   3.982   4.589   2.126
 1689W        W 2886   5.631   0.344   2.737
 1690W        W 2887   5.580   7.423   4.392
 1691W        W 2888   5.927   2.244   2.715
 1692W        W 2889   5.787   1.949   5.289
 1693W        W 2890   3.972   0.976   2.861
 1694W        W 2891   7.447   6.249   5.807
 1695W        W 2892   2.034   0.786   1.824
 1696W        W 2893   7.803   0.754   4.114
 1697W        W 2894   4.717   4.169   0.270
 1698W        W 2895   0.612   7.069   7.615
 1699W        W 2896   1.368   7.756   1.100
 1700W        W 2897   4.551   5.998   4.611
 1701W        W 2898   1.355   7.960   7.427
 1702W        W 2899   3.856   3.053   6.327
 1703W        W 2900   2.370   6.774   1.299
 1704W        W 2901   4.830   1.667   0.222
 1705W        W 2902   7.390   6.099   1.076
 1706W        W 2903   3.657   1.297   6.978
 1707W        W 2904   4.447   4.458   4.385
 1708W        W 2905   3.032   2.300   0.911
 1709W        W 2906   3.076   6.488   3.479
 1710W        W 2907   3.312   3.741   7.089
 1711W        W 2908   3.918   2.826   0.213
 1712W        W 2909   4.656   6.791   7.052
 1713W        W 2910   3.806   6.906   2.221
 1714W        W 2911   7.464   4.337   1.413
 1715W        W 2912   1.634   1.361   7.526
 1716W        W 2913   6.781   5.229   7.787
 1717W        W 2914   0.824   4.641   7.502
 1718W        W 2915   3.539   2.936   6.742
 1719W        W 2916   0.809   6.249   6.416
 1720W        W 2917   1.505   1.445   5.910
 1721W        W 2918   2.334   4.612   3.045
 1722W        W 2919   6.421   3.439   1.378
 1723W        W 2920   2.523   3.767   3.990
 1724W        W 2921   5.718   6.797   7.143
 1725W        W 2922   4.141   2.110   4.654
 1726W        W 2923   3.156   3.795   2.145
 1727W        W 2924   7.699   6.299   0.657
 1728W        W 2925   5.039   2.898   5.793
 1729W        W 2926   6.321   3.321   0.828
 1730W        W 2927   4.276   5.978   5.638
 1731W        W 2928   1.000   2.528   3.516
 1732W        W 2929   5.976   1.385   1.665
 1733W        W 2930   2.449   1.452   6.961
 1734W        W 2931   7.434   7.999   7.757
 1735W        W 2932   6.953   3.751   4.740
 1736W        W 2933   3.286   7.186   5.262
 1737W        W 2934   4.557   0.474   6.112
 1738W        W 2935   2.732   1.795   4.676
 1739W        W 2936   6.651   5.012   3.663
 1740W        W 2937   2.243   6.374   6.846
 1741W        W 2938   6.737   1.683   5.535
 1742W        W 2939   2.236   1.807   3.504
 1743W        W 2940   3.303   4.917   6.917
 1744W        W 2941   4.609   3.604   7.491
 1745W        W 2942   0.145   7.014   7.565
 1746W        W 2943   6.803   1.985   6.028
 1747W        W 2944   6.118   6.671   2.613
 1748W        W 2945   1.076   6.421   0.699
 1749W        W 2946   4.283   4.278   0.635
 1750W        W 2947   3.646   5.627   4.519
 1751W        W 2948   0.041   3.567   4.054
 1752W        W 2949   7.584   1.423   3.453
 1753W        W 2950   5.750   0.903   2.899
 1754W        W 2951   5.680   3.808   3.481
 1755W        W 2952   2.062   0.753   5.628
 1756W        W 2953   6.958   3.903   5.267
 1757W        W 2954   1.268   3.395   4.717
 1758W        W 2955   4.620   4.195   1.225
 1759W        W 2956   0.701   2.712   7.109
 1760W        W 2957   4.886   3.186   5.348
 1761W        W 2958   3.319   6.605   1.799
 1762W        W 2959   0.478   5.827   0.451
 1763W        W 2960   5.625   4.828   4.497
 1764W        W 2961   1.130   4.680   3.813
 1765W        W 2962   5.034   5.779   4.941
 1766W        W 2963   7.385   6.463   0.108
 1767W        W 2964   0.993   4.627   2.170
 1768W        W 2965   1.239   3.952   2.832
 1769W        W 2966   4.080   1.861   5.925
 1770W        W 2967   6.219   3.480   1.869
 1771W        W 2968   0.039   1.014   4.501
 1772W        W 2969   3.275   5.192   5.873
 1773W        W 2970   1.488   3.470   6.015
 1774W        W 2971   5.521   7.260   0.821
 1775W        W 2972   6.354   2.104   5.081
 1776W        W 2973   1.212   4.380   1.303
 1777W        W 2974   6.844   4.263   6.637
 1778W        W 2975   1.089   6.075   1.719
 1779W        W 2976   4.371   5.161   7.115
 1780W        W 2977   2.051   0.698   1.134
 1781W        W 2978   5.958   1.234   0.640
 1782W        W 2979   3.764   1.533   2.223
 1783W        W 2980   7.117   4.665   0.600
 1784W        W 2981   5.474   0.387   4.764
 1785W        W 2982   7.461   4.369   3.499
 1786W        W 2983   5.084   2.527   6.522
 1787W        W 2984   1.216   2.837   3.160
 1788W        W 2985   3.278   0.957   6.817
 1789W        W 2986   7.207   7.464   0.255
 1790W        W 2987   5.989   2.246   0.315
 1791W        W 2988   7.474   4.896   3.837
 1792W        W 2989   5.772   5.408   1.892
 1793W        W 2990   0.563   6.360   6.866
 1794W        W 2991   1.679   3.131   3.960
 1795W        W 2992   4.232   7.719   1.172
 1796W        W 2993   0.231   0.396   6.987
 1797W        W 2994   1.862   5.139   2.330
 1798W        W 2995   5.347   1.805   7.285
 1799W        W 2996   5.484   5.382   1.431
 1800W        W 2997   4.147   1.825   2.859
 1801W        W 2998   2.121   5.639   6.736
 1802W        W 2999   0.173   6.455   2.522
 1803W        W 3000   3.278   2.746   0.980
 1804W        W 3001   0.910   2.543   2.820
 1805W        W 3002   5.340   0.979   6.624
 1806W        W 3003   1.905   5.102   4.144
 1807W        W 3004   6.699   5.577   6.068
 1808W        W 3005   1.514   6.414   4.897
 1809W        W 3006   3.148   2.064   6.582
 1810W        W 3007   7.590   4.065   6.029
 1811W        W 3008   7.778   2.212   3.494
 1812W        W 3009   7.014   0.758   5.575
 1813W        W 3010   3.049   3.194   0.397
 1814W        W 3011   5.751   4.509   2.904
 1815W        W 3012   2.008   2.416   2.989
 1816W        W 3013   0.508   3.635   5.074
 1817W        W 3014   6.622   0.755   5.958
 1818W        W 3015   1.246   4.714   4.776
 1819W        W 3016   1.817   4.992   1.822
 1820W        W 3017   4.865   2.099   6.601
 1821W        W 3018   6.064   3.808   1.584
 1822W        W 3019   5.454   0.482   0.221
 1823W        W 3020   3.931   4.829   6.378
 1824W        W 3021   2.298   0.101   5.777
 1825W        W 3022   4.324   1.275   2.658
 1826W        W 3023   3.348   5.392   4.159
 1827W        W 3024   6.829   1.081   2.116
 1828W        W 3025   2.171   3.129   1.158
 1829W        W 3026   2.897   5.189   1.945
 1830W        W 3027   0.252   6.321   5.505
 1831W        W 3028   2.669   5.857   0.711
 1832W        W 3029   2.109   6.761   4.220
 1833W        W 3030   1.855   0.008   4.644
 1834W        W 3031   1.275   3.983   5.953
 1835W        W 3032   7.166   7.340   7.073
 1836W        W 3033   4.955   7.670   5.810
 1837W        W 3034   4.206   1.064   4.467
 1838W        W 3035   3.553   7.069   3.098
 1839W        W 3036   0.902   5.098   5.379
 1840W        W 3037   7.382   1.826   7.628
 1841W        W 3038   7.585   2.101   4.553
 1842W        W 3039   3.335   7.377   3.873
 1843W        W 3040   1.988   3.482   3.790
 1844W        W 3041   6.788   4.567   1.136
 1845W        W 3042   6.986   1.091   7.327
 1846W        W 3043   3.232   3.637   1.184
 1847W        W 3044   7.208   6.114   2.773
 1848W        W 3045   2.721   6.087   2.596
 1849W        W 3046   5.125   4.333   6.740
 1850W        W 3047   3.246   3.966   4.592
 1851W        W 3048   4.933   3.135   0.230
 1852W        W 3049   5.919   0.474   3.160
 1853W        W 3050   2.226   5.983   3.793
 1854W        W 3051   3.987   5.360   6.617
 1855W        W 3052   6.694   0.054   2.632
 1856W        W 3053   4.480   4.619   1.488
 1857W        W 3054   7.046   1.351   2.748
 1858W        W 3055   3.568   5.426   3.695
 1859W        W 3056   1.183   2.925   4.479
 1860W        W 3057   5.804   2.326   4.417
 1861W        W 3058   2.377   6.324   2.837
 1862W        W 3059   2.756   1.468   7.538
 1863W        W 3060   1.365   5.575   2.878
 1864W        W 3061   5.550   0.934   0.903
 1865W        W 3062   1.994   3.242   5.618
 1866W        W 3063   7.504   0.718   2.275
 1867W        W 3064   3.090   7.742   7.182
 1868W        W 3065   4.484   4.262   1.770
 1869W        W 3066   2.129   7.321   4.267
 1870W        W 3067   6.337   6.748   3.548
 1871W        W 3068   4.734   1.451   7.433
 1872W        W 3069   5.494   0.598   4.215
 1873W        W 3070   7.744   3.892   3.563
 1874W        W 3071   0.779   0.999   0.453
 1875W        W 3072   5.931   6.818   6.623
 1876W        W 3073   1.308   3.509   7.007
 1877W        W 3074   1.600   0.992   1.243
 1878W        W 3075   1.279   7.200   7.412
 1879W        W 3076   1.781   2.625   1.639
 1880W        W 3077   2.386   7.083   7.388
 1881W        W 3078   3.090   7.656   1.864
 1882W        W 3079   3.083   3.534   2.502
 1883W        W 3080   1.068   6.386   6.983
 1884W        W 3081   5.890   4.705   6.356
 1885W        W 3082   1.229   0.181   0.542
 1886W        W 3083   1.669   5.554   4.272
 1887W        W 3084   1.354   1.459   6.841
 1888W        W 3085   1.082   0.725   7.076
 1889W        W 3086   0.538   5.265   0.141
 1890W        W 3087   6.805   6.437   2.152
 1891W        W 3088   3.837   6.798   3.835
 1892W        W 3089   7.790   7.073   6.995
 1893W        W 3090   4.247   6.437   7.319
 1894W        W 3091   7.244   0.813   4.263
 1895W        W 3092   5.303   5.041   3.127
 1896W        W 3093   3.117   3.294   7.520
 1897W        W 3094   2.739   3.922   6.057
 1898W        W 3095   1.110   3.821   1.276
 1899W        W 3096   1.421   1.628   3.957
 1900W        W 3097   0.104   6.058   0.834
 1901W        W 3098   5.507   5.082   5.500
 1902W        W 3099   5.989   6.834   2.167
 1903W        W 3100   1.529   5.814   1.707
 1904W        W 3101   6.769   6.851   5.832
 1905W        W 3102   4.480   1.822   4.931
 1906W        W 3103   4.725   0.042   3.589
 1907W        W 3104   7.475   1.578   0.488
 1908W        W 3105   1.804   0.351   5.506
 1909W        W 3106   1.537   7.087   1.849
 1910W        W 3107   6.088   4.661   1.547
 1911W        W 3108   5.708   1.903   0.037
 1912W        W 3109   5.630   6.787   1.121
 1913W        W 3110   4.373   0.793   0.964
 1914W        W 3111   4.092   1.777   3.399
 1915W        W 3112   0.644   2.928   1.359
 1916W        W 3113   4.664   1.779   1.867
 1917W        W 3114   6.258   2.288   0.773
 1918W        W 3115   0.018   7.813   7.121
 1919W        W 3116   7.154   1.682   3.069
 1920W        W 3117   1.520   5.386   2.095
 1921W        W 3118   7.083   1.412   3.457
 1922W        W 3119   2.583   0.053   0.162
 1923W        W 3120   2.198   3.979   4.941
 1924W        W 3121   7.267   2.039   4.888
 1925W        W 3122   5.544   1.009   4.693
 1926W        W 3123   1.641   7.805   5.591
 1927W        W 3124   5.860   1.826   3.177
 1928W        W 3125   6.616   3.000   2.510
 1929W        W 3126   1.498   6.300   7.258
 1930W        W 3127   7.880   4.695   2.447
 1931W        W 3128   1.089   0.951   6.147
 1932W        W 3129   7.814   6.561   6.840
 1933W        W 3130   4.960   4.899   5.403
 1934W        W 3131   3.399   1.465   7.873
 1935W        W 3132   4.192   6.397   4.677
 1936W        W 3133   0.905   2.939   1.780
 1937W        W 3134   6.565   5.266   1.696
 1938W        W 3135   2.230   5.745   7.698
 1939W        W 3136   1.069   1.086   6.610
 1940W        W 3137   2.942   1.370   0.471
 1941W        W 3138   7.490   3.705   5.539
 1942W        W 3139   3.392   6.196   5.279
 1943W        W 3140   6.058   4.792   2.478
 1944W        W 3141   2.781   0.949   5.994
 1945W        W 3142   6.084   7.280   4.401
 1946W        W 3143   3.231   4.870   3.951
 1947W        W 3144   2.786   2.278   2.540
 1948W        W 3145   3.359   7.246   2.620
 1949W        W 3146   1.111   5.001   6.637
 1950W        W 3147   1.914   4.505   0.423
 1951W        W 3148   4.808   0.959   5.238
 1952W        W 3149   6.547   1.250   2.513
 1953W        W 3150   2.064   5.285   4.671
 1954W        W 3151   0.980   5.934   6.746
 1955W        W 3152   2.263   0.605   6.523
 1956W        W 3153   2.121   3.572   5.233
 1957W        W 3154   6.693   0.490   2.870
 1958W        W 3155   2.684   4.019   1.933
 1959W        W 3156   1.815   1.539   3.692
 1960W        W 3157   6.948   5.099   0.420
 1961W        W 3158   4.020   3.477   7.739
 1962W        W 3159   2.827   0.854   6.900
 1963W        W 3160   4.912   7.167   6.819
 1964W        W 3161   0.162   1.208   6.194
 1965W        W 3162   4.949   4.012   3.649
 1966W        W 3163   6.930   3.290   1.548
 1967W        W 3164   5.167   2.924   7.698
 1968W        W 3165   6.875   2.443   7.941
 1969W        W 3166   2.224   7.372   2.325
 1970W        W 3167   0.232   0.326   0.117
 1971W        W 3168   6.595   7.303   4.501
 1972W        W 3169   7.065   3.438   6.826
 1973W        W 3170   2.483   2.831   2.485
 1974W        W 3171   7.006   7.441   1.834
 1975W        W 3172   2.497   5.128   0.319
 1976W        W 3173   5.769   2.356   6.202
 1977W        W 3174   4.160   1.781   2.363
 1978W        W 3175   6.145   3.224   7.673
 1979W        W 3176   2.883   2.815   3.299
 1980W        W 3177   4.945   3.942   1.648
 1981W        W 3178   6.393   6.526   5.815
 1982W        W 3179   2.329   1.970   4.965
 1983W        W 3180   1.421   4.692   0.411
 1984W        W 3181   5.711   2.009   6.919
 1985W        W 3182   0.714   2.734   4.520
 1986W        W 3183   0.744   3.989   0.786
 1987W        W 3184   0.895   3.346   2.040
 1988W        W 3185   3.964   0.095   7.596
 1989W        W 3186   6.964   1.535   2.299
 1990W        W 3187   1.916   6.162   6.509
 1991W        W 3188   0.810   3.740   4.701
 1992W        W 3189   4.173   0.688   4.726
 1993W        W 3190   6.142   3.025   2.139
 1994W        W 3191   2.978   5.242   6.632
 1995W        W 3192   5.367   4.123   7.115
 1996W        W 3193   6.887   0.308   4.326
 1997W        W 3194   7.839   1.862   0.694
 1998W        W 3195   6.764   7.893   6.301
 1999W        W 3196   0.456   6.649   3.371
 2000W        W 3197   6.847   7.061   6.775
 2001W        W 3198   6.100   5.880   4.204
 2002W        W 3199   5.428   4.338   6.311
 2003W        W 3200   0.696   2.593   5.201
 2004W        W 3201   4.785   7.683   3.005
 2005W        W 3202   3.725   7.776   2.289
 2006W        W 3203   3.485   1.510   4.750
 2007W        W 3204   6.052   5.610   7.202
 2008W        W 3205   5.561   2.458   2.033
 2009W        W 3206   0.203   4.385   2.512
 2010W        W 3207   3.345   1.759   6.980
 2011W        W 3208   7.265   3.383   4.131
 2012W        W 3209   0.897   2.437   1.927
 2013W        W 3210   6.744   5.944   5.570
 2014W        W 3211   3.267   7.841   2.957
 2015W        W 3212   4.155   3.388   0.822
 2016W        W 3213   1.011   4.268   3.553
 2017W        W 3214   4.041   0.098   2.881
 2018W        W 3215   1.931   5.643   1.890
 2019W        W 3216   5.361   5.747   4.392
 2020W        W 3217   5.443   6.904   6.586
 2021W        W 3218   5.150   4.302   1.191
 2022W        W 3219   2.904   0.136   3.613
 2023W        W 3220   7.346   5.819   4.287
 2024W        W 3221   3.982   0.049   1.331
 2025W        W 3222   2.175   4.301   4.528
 2026W        W 3223   4.747   2.482   2.916
 2027W        W 3224   5.490   1.311   1.813
 2028W        W 3225   1.969   0.800   7.492
 2029W        W 3226   4.339   5.586   4.381
 2030W        W 3227   5.755   4.057   4.010
 2031W        W 3228   3.614   5.681   6.101
 2032W        W 3229   6.375   0.152   3.029
 2033W        W 3230   6.007   2.726   6.585
 2034W        W 3231   5.124   7.519   0.590
 2035W        W 3232   6.940   7.160   3.148
 2036W        W 3233   2.343   4.822   4.155
 2037W        W 3234   0.904   0.203   6.894
 2038W        W 3235   6.977   2.464   1.216
 2039W        W 3236   4.050   4.918   1.443
 2040W        W 3237   1.003   7.335   3.802
 2041W        W 3238   6.036   4.268   4.576
 2042W        W 3239   7.041   7.097   7.540
 2043W        W 3240   0.184   4.545   7.415
 2044W        W 3241   2.768   0.619   3.835
 2045W        W 3242   2.150   0.807   5.092
 2046W        W 3243   0.665   0.563   4.547
 2047W        W 3244   1.060   6.492   1.365
 2048W        W 3245   5.555   7.621   7.290
 2049W        W 3246   3.691   5.193   2.841
 2050W        W 3247   7.109   0.781   0.947
 2051W        W 3248   7.342   4.455   4.127
 2052W        W 3249   0.872   0.546   1.706
 2053W        W 3250   7.572   0.771   0.087
 2054W        W 3251   3.516   5.082   0.621
 2055W        W 3252   5.756   2.698   0.226
 2056W        W 3253   6.722   6.583   0.658
 2057W        W 3254   1.899   2.264   4.275
 2058W        W 3255   6.558   6.847   0.143
 2059W        W 3256   0.443   7.415   7.157
 2060W        W 3257   1.247   2.453   5.273
 2061W        W 3258   7.451   7.665   4.820
 2062W        W 3259   1.708   0.644   5.006
 2063W        W 3260   2.120   6.678   2.532
 2064W        W 3261   5.907   4.243   7.130
 2065W        W 3262   0.806   3.828   6.025
 2066W        W 3263   4.331   5.525   0.889
 2067W        W 3264   2.074   1.051   0.724
 2068W        W 3265   7.492   0.128   5.132
 2069W        W 3266   5.073   7.462   4.394
 2070W        W 3267   6.397   7.263   3.116
 2071W        W 3268   5.363   1.553   5.650
 2072W        W 3269   5.110   0.027   7.707
 2073W        W 3270   3.310   5.472   0.875
 2074W        W 3271   5.725   3.801   4.419
 2075W        W 3272   4.911   1.143   4.080
 2076W        W 3273   3.717   5.742   5.093
 2077W        W 3274   7.123   6.255   4.071
 2078W        W 3275   0.327   2.872   7.453
 2079W        W 3276   2.571   4.005   2.386
 2080W        W 3277   1.078   7.080   2.087
 2081W        W 3278   0.613   0.002   0.178
 2082W        W 3279   6.944   3.436   0.304
 2083W        W 3280   6.871   3.910   6.229
 2084W        W 3281   2.419   6.278   0.534
 2085W        W 3282   7.835   2.327   2.343
 2086W        W 3283   2.330   4.349   0.738
 2087W        W 3284   4.846   5.551   4.475
 2088W        W 3285   5.207   3.082   6.648
 2089W        W 3286   1.520   3.293   3.084
 2090W        W 3287   5.039   4.198   2.823
 2091W        W 3288   2.634   6.972   4.249
 2092W        W 3289   7.788   2.970   6.560
 2093W        W 3290   4.629   6.282   1.933
 2094W        W 3291   4.204   0.818   0.112
 2095W        W 3292   6.707   0.517   4.802
 2096W        W 3293   4.422   0.979   3.282
 2097W        W 3294   4.621   4.225   5.770
 2098W        W 3295   1.565   6.430   4.329
 2099W        W 3296   0.408   0.875   3.054
 2100W        W 3297   6.818   5.697   1.894
 2101W        W 3298   4.923   0.493   1.603
 2102W        W 3299   6.733   6.893   7.191
 2103W        W 3300   5.080   6.180   0.174
 2104W        W 3301   4.916   3.628   2.192
 2105W        W 3302   4.574   7.926   4.492
 2106W        W 3303   6.431   2.981   4.706
 2107W        W 3304   4.453   1.194   1.762
 2108W        W 3305   3.291   6.397   4.633
 2109W        W 3306   3.663   7.116   1.159
 2110W        W 3307   0.318   6.306   3.936
 2111W        W 3308   1.314   4.224   6.464
 2112W        W 3309   5.599   6.659   2.415
 2113W        W 3310   6.565   1.234   0.507
 2114W        W 3311   6.858   0.999   4.632
 2115W        W 3312   4.568   6.102   7.586
 2116W        W 3313   6.335   5.825   4.635
 2117W        W 3314   4.731   1.141   2.898
 2118W        W 3315   1.793   7.700   4.061
 2119W        W 3316   0.518   0.560   5.704
 2120W        W 3317   7.566   3.554   1.996
 2121W        W 3318   5.144   0.091   0.880
 2122W        W 3319   5.644   4.654   5.854
 2123W        W 3320   6.440   5.876   3.756
 2124W        W 3321   7.455   4.821   1.507
 2125W        W 3322   7.360   2.670   0.803
 2126W        W 3323   7.054   1.237   0.668
 2127W        W 3324   3.747   0.504   7.963
 2128W        W 3325   4.836   0.914   2.460
 2129W        W 3326   4.485   1.081   3.947
 2130W        W 3327   7.461   0.564   5.467
 2131W        W 3328   1.196   2.100   3.814
 2132W        W 3329   7.560   2.897   0.353
 2133W        W 3330   4.010   0.363   7.172
 2134W        W 3331   2.665   1.281   2.603
 2135W        W 3332   4.643   2.299   1.643
 2136W        W 3333   5.734   6.775   3.586
 2137W        W 3334   3.903   3.805   0.033
 2138W        W 3335   6.143   5.036   1.992
 2139W        W 3336   1.369   0.912   4.711
 2140W        W 3337   3.060   7.139   1.803
 2141W        W 3338   7.712   2.916   1.059
 2142W        W 3339   6.502   4.965   6.060
 2143W        W 3340   3.713   3.025   7.632
 2144W        W 3341   1.917   1.758   4.161
 2145W        W 3342   4.830   5.991   4.145
 2146W        W 3343   6.005   5.173   6.258
 2147W        W 3344   2.016   3.438   6.221
 2148W        W 3345   6.293   5.731   2.574
 2149W        W 3346   6.619   6.289   4.656
 2150W        W 3347   6.605   0.380   5.674
 2151W        W 3348   1.946   6.233   2.305
 2152W        W 3349   6.194   2.331   4.114
 2153W        W 3350   6.335   2.501   4.544
 2154W        W 3351   7.197   7.111   5.707
 2155W        W 3352   3.845   7.229   3.597
 2156W        W 3353   1.483   2.462   2.911
 2157W        W 3354   7.127   5.552   6.250
 2158W        W 3355   7.644   1.662   4.360
 2159W        W 3356   1.927   5.742   3.512
 2160W        W 3357   4.527   7.290   3.814
 2161W        W 3358   4.809   7.388   6.248
 2162W        W 3359   1.508   0.918   0.706
 2163W        W 3360   2.419   6.193   7.567
 2164W        W 3361   1.471   1.984   5.645
 2165W        W 3362   6.239   7.153   2.653
 2166W        W 3363   6.896   5.240   6.613
 2167W        W 3364   0.248   6.419   4.520
 2168W        W 3365   6.414   5.671   0.829
 2169W        W 3366   1.709   3.452   2.051
 2170W        W 3367   5.853   5.479   3.467
 2171W        W 3368   1.676   0.131   1.333
 2172W        W 3369   6.952   7.493   2.838
 2173W        W 3370   6.462   3.965   1.228
 2174W        W 3371   1.542   2.613   4.929
 2175W        W 3372   4.171   7.735   0.390
 2176W        W 3373   6.433   1.727   2.370
 2177W        W 3374   3.951   3.773   3.846
 2178W        W 3375   4.144   1.086   0.563
 2179W        W 3376   5.976   4.273   1.778
 2180W        W 3377   4.231   3.468   6.724
 2181W        W 3378   7.483   5.725   2.533
 2182W        W 3379   4.136   3.286   2.536
 2183W        W 3380   4.059   6.338   7.776
 2184W        W 3381   6.695   3.304   5.453
 2185W        W 3382   5.764   7.248   1.329
 2186W        W 3383   4.039   0.591   4.170
 2187W        W 3384   2.926   2.115   7.123
 2188W        W 3385   2.477   6.826   2.954
 2189W        W 3386   5.555   3.660   3.024
 2190W        W 3387   2.376   4.450   5.033
 2191W        W 3388   5.390   3.030   1.382
 2192W        W 3389   6.106   2.278   6.644
 2193W        W 3390   2.685   5.626   4.663
 2194W        W 3391   4.984   1.447   5.905
 2195W        W 3392   7.443   7.093   3.193
 2196W        W 3393   5.739   3.897   4.912
 2197W        W 3394   4.997   3.088   4.195
 2198W        W 3395   2.423   0.289   3.616
 2199W        W 3396   1.099   2.567   4.093
 2200W        W 3397   1.967   3.293   3.298
 2201W        W 3398   1.714   3.865   5.086
 2202W        W 3399   6.123   4.246   6.524
 2203W        W 3400   5.251   3.082   4.908
 2204W        W 3401   5.037   5.659   3.284
 2205W        W 3402   7.133   3.427   5.196
 2206W        W 3403   1.780   2.873   2.126
 2207W        W 3404   3.029   1.021   7.718
 2208W        W 3405   6.670   6.111   7.621
 2209W        W 3406   7.219   4.737   3.237
 2210W        W 3407   7.135   7.534   6.400
 2211W        W 3408   4.574   3.697   5.924
 2212W        W 3409   2.107   2.008   0.655
 2213W        W 3410   6.875   3.095   0.971
 2214W        W 3411   5.652   6.236   1.100
 2215W        W 3412   3.255   7.550   6.398
 2216W        W 3413   3.218   6.107   1.907
 2217W        W 3414   6.686   6.003   4.203
 2218W        W 3415   1.544   0.199   5.038
 2219W        W 3416   1.450   0.460   4.087
 2220W        W 3417   2.841   6.672   1.246
 2221W        W 3418   1.278   3.882   4.863
 2222W        W 3419   6.966   4.513   7.226
 2223W        W 3420   4.330   1.230   4.911
 2224W        W 3421   5.820   0.175   0.058
 2225W        W 3422   0.478   6.759   5.044
 2226W        W 3423   5.564   5.823   5.305
 2227W        W 3424   4.043   5.097   0.883
 2228W        W 3425   5.302   6.684   0.721
 2229W        W 3426   5.586   1.293   3.450
 2230W        W 3427   0.690   5.426   4.971
 2231W        W 3428   2.518   0.477   4.889
 2232W        W 3429   1.044   1.307   4.171
 2233W        W 3430   3.809   7.745   2.842
 2234W        W 3431   3.752   0.503   6.073
 2235W        W 3432   4.783   6.740   2.770
 2236W        W 3433   3.629   3.848   0.435
 2237W        W 3434   5.246   2.146   3.864
 2238W        W 3435   0.525   2.920   5.693
 2239W        W 3436   6.967   2.028   1.001
 2240W        W 3437   4.198   2.082   1.728
 2241W        W 3438   2.406   5.881   1.700
 2242W        W 3439   4.833   2.440   3.589
 2243W        W 3440   1.931   6.158   1.784
 2244W        W 3441   5.854   4.893   3.268
 2245W        W 3442   1.214   5.196   5.003
 2246W        W 3443   2.459   0.814   2.590
 2247W        W 3444   6.746   2.628   6.981
 2248W        W 3445   7.754   1.383   6.869
 2249W        W 3446   7.678   3.352   3.801
 2250W        W 3447   2.079   7.093   2.774
 2251W        W 3448   6.668   1.202   5.647
 2252W        W 3449   3.288   3.576   0.228
 2253W        W 3450   5.373   4.605   5.382
 2254W        W 3451   2.251   4.376   7.539
 2255W        W 3452   4.640   3.769   4.008
 2256W        W 3453   1.031   7.581   2.617
 2257W        W 3454   1.216   3.720   3.284
 2258W        W 3455   6.590   5.412   2.234
 2259W        W 3456   6.456   1.651   3.801
 2260W        W 3457   5.051   0.339   4.028
 2261W        W 3458   3.642   3.473   2.554
 2262W        W 3459   3.650   0.017   5.881
 2263W        W 3460   1.544   5.166   0.676
 2264W        W 3461   4.218   7.699   3.800
 2265W        W 3462   0.378   6.253   4.988
 2266W        W 3463   6.416   1.033   4.864
 2267W        W 3464   6.368   3.887   6.190
 2268W        W 3465   1.510   2.028   4.292
 2269W        W 3466   4.657   2.781   7.385
 2270W        W 3467   1.677   1.401   4.370
 2271W        W 3468   2.210   7.171   6.605
 2272W        W 3469   7.815   3.313   6.166
 2273W        W 3470   6.936   1.818   5.127
 2274W        W 3471   6.375   5.073   3.197
 2275W        W 3472   0.129   3.465   3.483
 2276W        W 3473   7.636   6.668   2.387
 2277W        W 3474   6.046   2.979   1.639
 2278W        W 3475   2.842   3.989   1.144
 2279W        W 3476   1.386   7.552   7.050
 2280W        W 3477   3.608   5.888   6.603
 2281W        W 3478   3.419   3.750   6.563
 2282W        W 3479   2.489   5.551   3.482
 2283W        W 3480   7.345   7.023   2.639
 2284W        W 3481   1.671   1.758   0.733
 2285W        W 3482   4.665   0.310   2.633
 2286W        W 3483   0.728   5.926   4.751
 2287W        W 3484   7.587   2.137   1.851
 2288W        W 3485   1.582   1.811   6.262
 2289W        W 3486   7.780   3.028   2.000
 2290W        W 3487   5.125   4.773   4.623
 2291W        W 3488   5.635   0.753   5.704
 2292W        W 3489   6.228   5.542   5.016
 2293W        W 3490   2.889   1.781   2.951
 2294W        W 3491   3.796   7.309   6.534
 2295W        W 3492   3.983   2.134   7.231
 2296W        W 3493   3.016   0.458   6.063
 2297W        W 3494   4.167   2.570   2.006
 2298W        W 3495   7.516   3.142   2.407
 2299W        W 3496   6.396   3.310   4.315
 2300W        W 3497   6.085   6.156   1.349
 2301W        W 3498   5.216   2.380   5.041
 2302W        W 3499   3.280   5.508   2.105
 2303W        W 3500   2.648   4.766   7.577
 2304W        W 3501   6.948   5.027   1.369
 2305W        W 3502   1.845   4.741   3.263
 2306W        W 3503   7.701   6.138   2.143
 2307W        W 3504   5.475   5.899   7.382
 2308W        W 3505   1.669   4.319   6.824
 2309W        W 3506   3.161   6.835   0.380
 2310W        W 3507   4.757   3.484   4.378
 2311W        W 3508   2.713   1.525   3.347
 2312W        W 3509   6.111   6.953   5.798
 2313W        W 3510   4.017   1.925   0.666
 2314W        W 3511   2.654   5.614   5.578
 2315W        W 3512   0.895   0.387   2.244
 2316W        W 3513   2.128   1.851   0.100
 2317W        W 3514   0.079   3.171   7.051
 2318W        W 3515   2.124   1.533   0.523
 2319W        W 3516   1.473   0.910   7.377
 2320W        W 3517   5.721   2.465   5.275
 2321W        W 3518   7.246   2.710   7.094
 2322W        W 3519   2.497   2.480   7.671
 2323W        W 3520   0.382   2.418   2.772
 2324W        W 3521   6.748   0.224   3.354
 2325W        W 3522   7.420   6.188   3.252
 2326W        W 3523   2.365   4.870   1.741
 2327W        W 3524   4.668   2.637   5.943
 2328W        W 3525   5.416   0.299   1.415
 2329W        W 3526   0.714   0.625   1.251
 2330W        W 3527   6.664   1.625   4.260
 2331W        W 3528   0.735   2.176   3.923
 2332W        W 3529   2.472   4.007   7.906
 2333W        W 3530   5.545   7.827   1.351
 2334W        W 3531   3.785   5.977   1.942
 2335W        W 3532   6.416   1.162   0.953
 2336W        W 3533   0.616   5.456   4.477
 2337W        W 3534   4.770   0.497   1.006
 2338W        W 3535   6.089   6.457   7.037
 2339W        W 3536   4.948   4.407   4.291
 2340W        W 3537   6.944   0.792   2.590
 2341W        W 3538   0.982   5.379   3.104
 2342W        W 3539   1.874   6.790   5.058
 2343W        W 3540   7.388   7.790   0.654
 2344W        W 3541   1.058   6.603   5.652
 2345W        W 3542   5.939   0.068   0.571
 2346W        W 3543   5.789   1.072   3.986
 2347W        W 3544   1.422   7.697   1.736
 2348W        W 3545   0.399   6.776   7.109
 2349W        W 3546   2.339   1.238   5.069
 2350W        W 3547   2.571   6.662   5.562
 2351W        W 3548   1.515   5.928   3.133
 2352W        W 3549   0.562   5.079   2.993
 2353W        W 3550   0.048   2.331   1.604
 2354W        W 3551   1.970   3.726   1.046
 2355W        W 3552   6.328   3.468   2.389
 2356W        W 3553   7.054   3.440   6.324
 2357W        W 3554   0.449   6.542   6.282
 2358W        W 3555   3.318   0.495   0.563
 2359W        W 3556   4.597   5.111   0.743
 2360W        W 3557   1.876   1.648   5.698
 2361W        W 3558   6.973   7.115   6.179
 2362W        W 3559   5.920   3.782   2.504
 2363W        W 3560   4.475   6.827   5.437
 2364W        W 3561   3.563   3.407   1.516
 2365W        W 3562   0.611   1.831   6.543
 2366W        W 3563   6.870   7.807   7.817
 2367W        W 3564   1.387   1.882   1.261
 2368W        W 3565   0.260   2.685   6.922
 2369W        W 3566   1.723   7.499   2.662
 2370W        W 3567   5.693   3.337   6.945
 2371W        W 3568   1.849   1.647   2.752
 2372W        W 3569   0.535   3.169   6.935
 2373W        W 3570   1.766   0.051   7.825
 2374W        W 3571   2.558   7.414   1.910
 2375W        W 3572   0.105   3.608   2.334
 2376W        W 3573   0.006   4.725   1.240
 2377W        W 3574   5.667   1.540   7.806
 2378W        W 3575   5.573   7.132   2.179
 2379W        W 3576   3.560   7.734   1.169
 2380W        W 3577   7.490   5.391   5.845
 2381W        W 3578   2.977   3.056   5.062
 2382W        W 3579   4.143   5.910   4.855
 2383W        W 3580   7.733   5.711   0.834
 2384W        W 3581   2.811   0.996   3.451
 2385W        W 3582   0.812   1.661   2.568
 2386W        W 3583   4.363   5.885   3.957
 2387W        W 3584   3.529   3.205   7.190
 2388W        W 3585   5.164   0.648   5.404
 2389W        W 3586   3.604   2.147   6.891
 2390W        W 3587   4.168   1.601   1.884
 2391W        W 3588   1.307   0.519   7.608
 2392W        W 3589   3.632   4.877   5.559
 2393W        W 3590   1.813   1.007   5.984
 2394W        W 3591   6.402   2.012   1.215
 2395W        W 3592   6.800   6.619   4.339
 2396W        W 3593   7.448   2.473   3.769
 2397W        W 3594   5.906   1.622   7.385
 2398W        W 3595   3.027   5.059   0.292
 2399W        W 3596   5.255   0.737   2.779
 2400W        W 3597   1.573   6.450   1.006
 2401W        W 3598   2.864   7.593   2.671
 2402W        W 3599   2.968   3.367   1.743
 2403W        W 3600   0.337   0.353   1.144
 2404W        W 3601   0.361   1.744   7.038
 2405W        W 3602   5.234   1.069   5.671
 2406W        W 3603   4.977   0.911   0.710
 2407W        W 3604   6.980   4.215   0.385
 2408W        W 3605   6.265   4.616   0.497
 2409W        W 3606   5.735   7.279   4.881
 2410W        W 3607   0.565   5.424   2.066
 2411W        W 3608   4.213   6.881   7.181
 2412W        W 3609   5.180   2.272   4.394
 2413W        W 3610   6.424   0.415   7.258
 2414W        W 3611   2.970   3.943   0.026
 2415W        W 3612   1.914   5.865   0.026
 2416W        W 3613   7.019   2.481   5.075
 2417W        W 3614   1.423   7.909   2.635
 2418W        W 3615   2.742   3.623   7.659
 2419W        W 3616   2.320   0.459   7.355
 2420W        W 3617   7.126   4.794   0.006
 2421W        W 3618   2.188   4.181   5.445
 2422W        W 3619   4.994   5.218   1.131
 2423W        W 3620   2.401   7.662   2.614
 2424W        W 3621   2.248   3.767   3.332
 2425W        W 3622   2.496   0.292   6.236
 2426W        W 3623   2.027   6.950   7.004
 2427W        W 3624   7.351   5.460   0.594
 2428W        W 3625   4.112   5.575   5.922
 2429W        W 3626   6.792   3.656   4.180
 2430W        W 3627   3.397   7.189   6.759
 2431W        W 3628   2.364   0.408   5.367
 2432W        W 3629   4.589   4.633   0.505
 2433W        W 3630   7.105   2.168   5.639
 2434W        W 3631   3.922   1.346   3.645
 2435W        W 3632   7.095   3.638   1.883
 2436W        W 3633   1.702   3.344   5.098
 2437W        W 3634   5.229   7.800   4.676
 2438W        W 3635   3.425   4.146   7.431
 2439W        W 3636   4.772   6.931   2.233
 2440W        W 3637   4.193   1.589   4.560
 2441W        W 3638   4.005   6.727   5.289
 2442W        W 3639   6.422   1.648   5.957
 2443W        W 3640   0.075   6.754   4.087
 2444W        W 3641   5.718   2.274   3.918
 2445W        W 3642   5.662   4.097   6.666
 2446W        W 3643   1.393   2.884   0.928
 2447W        W 3644   3.058   2.220   2.966
 2448W        W 3645   0.782   4.666   5.703
 2449W        W 3646   5.912   6.695   5.431
 2450W        W 3647   6.210   6.125   0.825
 2451W        W 3648   4.046   4.061   1.727
 2452W        W 3649   3.890   2.319   1.078
 2453W        W 3650   5.753   5.306   4.319
 2454W        W 3651   0.234   1.455   4.714
 2455W        W 3652   4.380   7.188   1.236
 2456W        W 3653   7.499   0.765   1.802
 2457W        W 3654   2.671   1.025   0.761
 2458W        W 3655   1.379   4.820   5.301
 2459W        W 3656   0.570   7.420   0.092
 2460W        W 3657   1.402   5.197   2.583
 2461W        W 3658   5.216   4.017   4.122
 2462W        W 3659   0.181   7.594   3.207
 2463W        W 3660   0.159   5.154   6.984
 2464W        W 3661   5.437   1.667   5.133
 2465W        W 3662   1.156   7.763   4.077
 2466W        W 3663   2.675   1.722   1.055
 2467W        W 3664   6.451   5.179   0.423
 2468W        W 3665   1.880   6.525   1.425
 2469W        W 3666   0.325   7.020   6.262
 2470W        W 3667   4.205   2.435   0.133
 2471W        W 3668   3.630   3.316   3.366
 2472W        W 3669   2.681   5.839   6.015
 2473W        W 3670   6.251   4.524   3.358
 2474W        W 3671   2.871   3.415   5.350
 2475W        W 3672   0.198   5.841   5.600
 2476W        W 3673   6.189   2.807   3.303
 2477W        W 3674   2.589   2.262   0.769
 2478W        W 3675   0.083   7.937   2.788
 2479W        W 3676   1.427   7.550   7.745
 2480W        W 3677   2.270   7.639   3.887
 2481W        W 3678   0.281   1.747   3.311
 2482W        W 3679   5.383   6.156   3.094
 2483W        W 3680   3.836   4.279   7.706
 2484W        W 3681   2.683   4.563   2.004
 2485W        W 3682   4.001   7.482   5.566
 2486W        W 3683   1.161   0.759   2.502
 2487W        W 3684   4.167   6.508   5.791
 2488W        W 3685   0.785   0.665   6.697
 2489W        W 3686   1.960   1.695   1.705
 2490W        W 3687   3.669   1.598   1.698
 2491W        W 3688   5.279   4.300   5.811
 2492W        W 3689   2.570   5.866   3.061
 2493W        W 3690   5.530   4.333   4.443
 2494W        W 3691   3.939   6.346   6.518
 2495W        W 3692   5.311   5.943   1.339
 2496W        W 3693   4.580   5.062   2.598
 2497W        W 3694   4.269   3.752   4.336
 2498W        W 3695   4.038   4.363   2.595
 2499W        W 3696   1.036   2.117   4.309
 2500W        W 3697   1.007   4.147   7.490
 2501W        W 3698   2.507   5.349   1.600
 2502W        W 3699   5.623   3.214   3.584
 2503W        W 3700   4.043   7.312   6.964
 2504W        W 3701   4.386   1.266   6.179
 2505W        W 3702   6.120   0.530   5.931
 2506W        W 3703   2.690   0.122   7.272
 2507W        W 3704   7.751   4.845   6.838
 2508W        W 3705   0.706   3.205   5.310
 2509W        W 3706   3.636   5.054   7.798
 2510W        W 3707   2.852   5.828   2.154
 2511W        W 3708   2.323   3.788   5.739
 2512W        W 3709   3.314   3.757   3.485
 2513W        W 3710   3.992   2.676   3.703
 2514W        W 3711   7.847   6.382   4.938
 2515W        W 3712   6.192   1.503   5.375
 2516W        W 3713   1.751   3.885   6.434
 2517W        W 3714   1.524   2.580   4.421
 2518W        W 3715   3.514   5.623   2.727
 2519W        W 3716   5.407   0.866   7.115
 2520W        W 3717   7.586   2.940   2.819
 2521W        W 3718   2.941   3.943   5.629
 2522W        W 3719   2.582   6.225   0.985
 2523W        W 3720   5.544   1.766   3.837
 2524W        W 3721   6.619   1.096   7.711
 2525W        W 3722   2.931   3.060   2.293
 2526W        W 3723   1.123   7.188   4.267
 2527W        W 3724   2.894   2.756   0.642
 2528W        W 3725   4.837   1.539   3.198
 2529W        W 3726   6.963   6.473   7.093
 2530W        W 3727   4.966   7.599   3.900
 2531W        W 3728   2.811   7.005   5.059
 2532W        W 3729   0.876   7.198   7.053
 2533W        W 3730   5.157   6.276   1.024
 2534W        W 3731   5.243   7.000   3.580
 2535W        W 3732   7.417   4.170   5.291
 2536W        W 3733   6.913   4.042   7.070
 2537W        W 3734   7.155   6.183   7.506
 2538W        W 3735   7.773   5.127   4.943
 2539W        W 3736   4.672   6.359   0.959
 2540W        W 3737   1.000   5.871   6.157
 2541W        W 3738   4.285   1.510   0.373
 2542W        W 3739   6.059   7.050   0.013
 2543W        W 3740   0.779   4.868   6.282
 2544W        W 3741   6.609   2.451   5.908
 2545W        W 3742   0.387   3.370   7.539
 2546W        W 3743   1.338   5.068   4.095
 2547W        W 3744   4.436   4.952   4.700
 2548W        W 3745   5.545   2.630   5.819
 2549W        W 3746   1.404   2.020   2.185
 2550W        W 3747   5.132   2.349   6.064
 2551W        W 3748   2.704   7.130   1.074
 2552W        W 3749   0.081   4.084   7.220
 2553W        W 3750   2.168   1.323   7.575
 2554W        W 3751   1.284   0.581   5.247
 2555W        W 3752   3.938   2.545   4.599
 2556W        W 3753   1.451   5.430   3.326
 2557W        W 3754   1.892   7.075   6.058
 2558W        W 3755   3.305   6.248   3.908
 2559W        W 3756   5.047   1.882   4.796
 2560W        W 3757   7.404   4.451   6.934
 2561W        W 3758   2.539   1.081   3.998
 2562W        W 3759   2.725   4.810   0.696
 2563W        W 3760   7.445   5.691   7.374
 2564W        W 3761   5.602   1.385   0.253
 2565W        W 3762   4.773   4.473   2.067
 2566W        W 3763   6.054   0.955   2.444
 2567W        W 3764   6.928   6.967   5.344
 2568W        W 3765   1.612   1.833   0.224
 2569W        W 3766   4.544   4.298   2.798
 2570W        W 3767   1.880   7.500   6.780
 2571W        W 3768   1.968   1.488   6.143
 2572W        W 3769   3.397   2.205   7.298
 2573W        W 3770   2.638   5.580   2.656
 2574W        W 3771   6.586   7.082   1.879
 2575W        W 3772   4.848   0.703   3.729
 2576W        W 3773   3.136   6.729   2.686
 2577W        W 3774   2.348   4.055   1.148
 2578W        W 3775   1.020   6.960   7.857
 2579W        W 3776   0.843   4.232   3.082
 2580W        W 3777   0.961   3.154   7.178
 2581W        W 3778   0.508   2.250   4.451
 2582W        W 3779   6.508   3.033   1.689
 2583W        W 3780   5.181   0.446   6.438
 2584W        W 3781   4.795   2.756   5.034
 2585W        W 3782   3.099   7.176   5.902
 2586W        W 3783   5.938   5.882   3.728
 2587W        W 3784   3.253   7.249   7.232
 2588W        W 3785   3.636   7.107   4.286
 2589W        W 3786   2.627   2.178   0.225
 2590W        W 3787   1.843   3.847   5.953
 2591W        W 3788   1.382   2.455   5.771
 2592W        W 3789   5.668   0.645   2.311
 2593W        W 3790   6.603   2.841   0.006
 2594W        W 3791   0.116   2.283   0.522
 2595W        W 3792   0.863   5.963   2.829
 2596W        W 3793   7.716   4.485   2.925
 2597W        W 3794   3.848   3.998   2.857
 2598W        W 3795   3.340   2.351   1.299
 2599W        W 3796   6.099   2.473   1.796
 2600W        W 3797   7.255   5.264   7.623
 2601W        W 3798   5.202   0.037   2.373
 2602W        W 3799   7.401   2.665   2.003
 2603W        W 3800   4.008   3.318   0.342
 2604W        W 3801   0.901   0.212   2.792
 2605W        W 3802   3.132   4.363   5.842
 2606W        W 3803   5.062   5.024   3.872
 2607W        W 3804   0.352   3.961   6.317
 2608W        W 3805   4.134   6.265   2.040
 2609W        W 3806   4.965   1.280   1.954
 2610W        W 3807   3.070   7.349   3.021
 2611W        W 3808   5.671   5.060   2.273
 2612W        W 3809   4.417   5.805   3.064
 2613W        W 3810   0.969   1.205   2.800
 2614W        W 3811   3.207   2.276   4.889
 2615W        W 3812   4.385   6.437   5.180
 2616W        W 3813   7.356   5.329   4.073
 2617W        W 3814   5.206   5.593   5.697
 2618W        W 3815   4.412   1.606   7.945
 2619W        W 3816   3.461   1.513   3.831
 2620W        W 3817   7.386   1.230   2.345
 2621W        W 3818   4.391   5.286   2.990
 2622W        W 3819   4.935   0.979   7.392
 2623W        W 3820   1.055   2.595   4.830
 2624W        W 3821   1.461   1.022   3.999
 2625W        W 3822   5.537   3.055   4.506
 2626W        W 3823   3.793   7.193   5.104
 2627W        W 3824   2.762   6.512   1.723
 2628W        W 3825   1.038   2.119   2.606
 2629W        W 3826   1.083   5.656   5.157
 2630W        W 3827   2.196   0.491   2.292
 2631W        W 3828   3.878   4.063   2.239
 2632W        W 3829   6.480   6.745   3.036
 2633W        W 3830   6.777   7.642   3.739
 2634W        W 3831   0.762   6.766   6.653
 2635W        W 3832   7.490   3.208   7.014
 2636W        W 3833   5.611   6.297   3.644
 2637W        W 3834   6.710   6.103   0.598
 2638W        W 3835   1.903   0.933   3.265
 2639W        W 3836   6.676   2.153   7.067
 2640W        W 3837   0.618   7.271   2.359
 2641W        W 3838   6.139   4.093   3.673
 2642W        W 3839   7.397   1.834   5.380
 2643W        W 3840   5.399   2.034   2.209
 2644W        W 3841   1.755   2.388   2.059
 2645W        W 3842   7.627   5.361   6.743
 2646W        W 3843   6.924   3.067   7.126
 2647W        W 3844   7.252   4.129   4.787
 2648W        W 3845   6.126   7.167   3.521
 2649W        W 3846   3.113   4.473   1.188
 2650W        W 3847   0.923   3.950   6.474
 2651W        W 3848   6.915   2.815   1.792
 2652W        W 3849   2.529   0.223   1.072
 2653W        W 3850   2.588   6.705   3.512
 2654W        W 3851   4.226   4.744   6.801
 2655W        W 3852   6.264   4.465   6.034
 2656W        W 3853   7.156   1.072   1.734
 2657W        W 3854   5.913   3.291   4.130
 2658W        W 3855   0.900   0.799   4.854
 2659W        W 3856   4.417   7.592   1.710
 2660W        W 3857   3.628   7.147   7.756
 2661W        W 3858   0.275   5.333   4.146
 2662W        W 3859   2.027   1.735   7.303
 2663W        W 3860   6.999   5.985   7.067
 2664W        W 3861   1.845   6.662   7.885
 2665W        W 3862   6.505   4.558   6.465
 2666W        W 3863   1.938   6.318   0.345
 2667W        W 3864   3.143   5.886   6.904
 2668W        W 3865   3.971   3.809   6.387
 2669W        W 3866   6.866   6.457   0.176
 2670W        W 3867   5.227   6.506   2.741
 2671W        W 3868   7.761   5.808   5.718
 2672W        W 3869   2.470   7.346   3.011
 2673W        W 3870   2.774   0.661   1.141
 2674W        W 3871   1.544   1.318   6.401
 2675W        W 3872   4.647   1.710   2.690
 2676W        W 3873   1.334   1.755   3.481
 2677W        W 3874   7.032   0.145   7.198
 2678W        W 3875   5.015   4.413   1.647
 2679W        W 3876   2.377   7.658   3.376
 2680W        W 3877   4.227   7.814   2.319
 2681W        W 3878   3.500   6.059   0.857
 2682W        W 3879   0.531   2.883   2.695
 2683W        W 3880   3.114   0.284   1.877
 2684W        W 3881   3.112   5.929   0.543
 2685W        W 3882   6.688   4.732   0.235
 2686W        W 3883   1.455   7.857   0.155
 2687W        W 3884   1.257   7.387   3.048
 2688W        W 3885   4.750   6.637   7.774
 2689W        W 3886   0.682   6.778   0.893
 2690W        W 3887   4.266   1.732   7.505
 2691W        W 3888   0.761   6.207   5.806
 2692W        W 3889   3.093   5.717   6.377
 2693W        W 3890   2.812   0.644   6.459
 2694W        W 3891   3.022   2.365   1.678
 2695W        W 3892   1.236   2.223   0.976
 2696W        W 3893   4.780   2.316   4.770
 2697W        W 3894   3.384   0.432   5.697
 2698W        W 3895   7.054   2.484   6.316
 2699W        W 3896   5.241   7.376   6.419
 2700W        W 3897   7.014   4.872   5.627
 2701W        W 3898   7.304   7.566   5.508
 2702W        W 3899   2.503   3.328   4.440
 2703W        W 3900   3.177   7.439   0.985
 2704W        W 3901   4.221   4.088   4.778
 2705W        W 3902   5.496   6.863   5.721
 2706W        W 3903   1.265   6.610   6.551
 2707W        W 3904   2.553   2.281   1.779
 2708W        W 3905   7.995   4.407   0.012
 2709W        W 3906   1.432   6.112   2.098
 2710W        W 3907   7.828   4.101   1.053
 2711W        W 3908   5.467   4.236   1.979
 2712W        W 3909   3.857   5.043   7.024
 2713W        W 3910   7.588   6.424   3.991
 2714W        W 3911   1.563   2.120   1.699
 2715W        W 3912   1.312   3.725   6.570
 2716W        W 3913   3.829   3.872   5.880
 2717W        W 3914   3.929   1.036   1.031
 2718W        W 3915   5.725   5.373   5.069
 2719W        W 3916   2.069   5.553   3.951
 2720W        W 3917   1.171   3.364   5.533
 2721W        W 3918   7.431   1.347   7.389
 2722W        W 3919   2.386   1.780   2.018
 2723W        W 3920   3.438   0.478   6.425
 2724W        W 3921   2.782   3.308   4.014
 2725W        W 3922   3.462   4.041   7.919
 2726W        W 3923   5.130   1.191   1.112
 2727W        W 3924   6.228   2.505   5.386
 2728W        W 3925   3.890   6.814   6.146
 2729W        W 3926   5.211   7.900   6.282
 2730W        W 3927   2.451   1.045   0.253
 2731W        W 3928   5.116   0.269   2.912
 2732W        W 3929   0.544   5.485   5.421
 2733W        W 3930   4.003   5.369   0.467
 2734W        W 3931   4.037   6.694   4.344
 2735W        W 3932   5.389   0.482   1.891
 2736W        W 3933   5.394   3.290   6.177
 2737W        W 3934   7.941   6.055   5.316
 2738W        W 3935   2.360   6.946   4.741
 2739W        W 3936   2.878   4.314   0.739
 2740W        W 3937   1.075   6.621   1.856
 2741W        W 3938   0.939   4.389   0.443
 2742W        W 3939   3.123   7.930   0.926
 2743W        W 3940   4.658   5.974   0.586
 2744W        W 3941   7.689   6.814   0.833
 2745W        W 3942   6.705   0.463   6.850
 2746W        W 3943   7.997   0.619   5.394
 2747W        W 3944   0.723   0.353   7.704
 2748W        W 3945   2.138   5.733   4.407
 2749W        W 3946   6.503   0.341   6.225
 2750W        W 3947   3.811   7.291   6.022
 2751W        W 3948   5.022   0.460   7.970
 2752W        W 3949   4.594   5.518   1.316
 2753W        W 3950   3.846   3.499   2.137
 2754W        W 3951   3.785   3.769   4.648
 2755W        W 3952   5.190   1.025   7.842
 2756W        W 3953   1.686   3.701   0.635
 2757W        W 3954   5.675   0.338   0.975
 2758W        W 3955   5.453   2.644   4.223
 2759W        W 3956   3.707   1.731   7.446
 2760W        W 3957   4.641   0.832   4.653
 2761W        W 3958   5.799   1.516   6.729
 2762W        W 3959   2.385   2.815   7.083
 2763W        W 3960   1.796   7.496   0.951
 2764W        W 3961   7.297   4.839   4.492
 2765W        W 3962   5.885   2.144   1.156
 2766W        W 3963   7.584   6.276   1.574
 2767W        W 3964   1.839   6.214   2.803
 2768W        W 3965   6.126   0.209   3.525
 2769W        W 3966   5.687   3.382   2.159
 2770W        W 3967   4.016   6.331   0.237
 2771W        W 3968   5.477   1.529   4.653
 2772W        W 3969   4.801   5.121   1.656
 2773W        W 3970   3.910   0.086   4.446
 2774W        W 3971   6.373   4.905   7.174
 2775W        W 3972   1.493   0.848   2.986
 2776W        W 3973   7.739   7.456   0.833
 2777W        W 3974   0.761   0.940   5.366
 2778W        W 3975   3.916   3.835   3.337
 2779W        W 3976   6.796   2.900   6.122
 2780W        W 3977   7.473   1.552   3.920
 2781W        W 3978   6.432   6.538   1.062
 2782W        W 3979   0.220   1.001   5.359
 2783W        W 3980   0.941   3.356   0.176
 2784W        W 3981   2.667   6.644   2.569
 2785W        W 3982   4.850   1.182   3.539
 2786W        W 3983   3.463   1.956   2.433
 2787W        W 3984   0.250   1.530   1.152
 2788W        W 3985   1.844   4.701   2.684
 2789W        W 3986   4.635   5.937   0.069
 2790W        W 3987   4.637   7.129   1.814
 2791W        W 3988   4.674   3.536   2.702
 2792W        W 3989   0.630   6.261   1.041
 2793W        W 3990   5.158   3.024   3.637
 2794W        W 3991   2.049   2.758   4.720
 2795W        W 3992   2.636   7.239   3.517
 2796W        W 3993   5.943   0.509   3.955
 2797W        W 3994   0.722   6.187   4.321
 2798W        W 3995   7.444   6.524   6.521
 2799W        W 3996   2.121   2.068   2.654
 2800W        W 3997   2.512   7.486   5.134
 2801W        W 3998   0.387   2.810   1.919
 2802W        W 3999   5.206   1.422   7.569
 2803W        W 4000   6.324   0.187   4.276
 2804W        W 4001   1.866   7.262   3.833
 2805W        W 4002   4.173   2.329   6.114
 2806W        W 4003   6.491   6.887   2.316
 2807W        W 4004   7.849   5.118   0.833
 2808W        W 4005   2.445   7.618   5.628
 2809W        W 4006   6.852   3.196   4.480
 2810W        W 4007   6.506   5.397   6.891
 2811W        W 4008   7.929   3.969   3.127
 2812W        W 4009   6.516   0.948   7.197
 2813W        W 4010   2.589   0.126   4.024
 2814W        W 4011   3.821   6.636   1.848
 2815W        W 4012   2.995   7.608   3.578
 2816W        W 4013   0.609   2.654   3.781
 2817W        W 4014   5.449   3.143   4.019
 2818W        W 4015   3.265   4.502   4.341
 2819W        W 4016   5.207   5.080   7.280
 2820W        W 4017   3.690   2.010   3.009
 2821W        W 4018   5.853   0.378   1.704
 2822W        W 4019   2.337   2.456   4.426
 2823W        W 4020   7.176   4.189   5.776
 2824W        W 4021   2.282   7.631   6.474
 2825W        W 4022   6.912   6.537   1.504
 2826W        W 4023   3.824   4.257   4.527
 2827W        W 4024   6.551   6.337   3.385
 2828W        W 4025   4.449   3.025   0.132
 2829W        W 4026   6.007   2.740   4.951
 2830W        W 4027   2.389   6.198   5.755
 2831W        W 4028   7.060   0.992   6.108
 2832W        W 4029   7.997   7.211   6.058
 2833W        W 4030   4.297   1.238   7.592
 2834W        W 4031   5.536   1.543   0.854
 2835W        W 4032   7.716   4.618   6.419
 2836W        W 4033   1.534   6.012   6.275
 2837W        W 4034   0.617   3.578   1.046
 2838W        W 4035   5.772   2.082   7.512
 2839W        W 4036   7.672   3.288   5.198
 2840W        W 4037   6.164   0.806   7.529
 2841W        W 4038   6.859   6.702   3.503
 2842W        W 4039   3.814   1.110   4.758
 2843W        W 4040   7.371   1.735   2.626
 2844W        W 4041   7.463   6.667   4.408
 2845W        W 4042   2.099   4.948   1.359
 2846W        W 4043   1.979   2.925   5.196
 2847W        W 4044   5.512   3.226   5.652
 2848W        W 4045   3.567   2.859   4.372
 2849W        W 4046   4.035   6.915   6.663
 2850W        W 4047   3.885   4.587   3.527
 2851W        W 4048   3.007   3.151   4.463
 2852W        W 4049   2.301   0.606   3.159
 2853W        W 4050   2.064   7.514   6.003
 2854W        W 4051   6.560   1.717   6.454
 2855W        W 4052   5.200   2.707   0.208
 2856W        W 4053   0.317   2.426   7.364
 2857W        W 4054   0.113   2.912   1.570
 2858W        W 4055   6.683   3.322   2.064
 2859W        W 4056   4.895   6.566   0.445
 2860W        W 4057   4.180   1.537   4.027
 2861W        W 4058   0.468   0.338   3.131
 2862W        W 4059   1.134   0.975   3.303
 2863W        W 4060   2.335   1.946   4.406
 2864W        W 4061   3.106   0.945   3.996
 2865W        W 4062   6.253   7.750   4.413
 2866W        W 4063   6.458   6.458   7.333
 2867W        W 4064   5.521   0.287   5.946
 2868W        W 4065   4.661   3.696   6.931
 2869W        W 4066   4.648   5.509   2.021
 2870W        W 4067   3.393   6.711   5.111
 2871W        W 4068   1.514   2.009   6.748
 2872W        W 4069   0.477   4.680   7.818
 2873W        W 4070   0.556   5.789   2.392
 2874W        W 4071   6.272   7.621   7.019
 2875W        W 4072   2.908   0.750   2.849
 2876W        W 4073   6.941   1.260   5.189
 2877W        W 4074   0.193   4.663   2.090
 2878W        W 4075   6.306   3.879   4.150
 2879W        W 4076   4.621   4.786   3.974
 2880W        W 4077   7.592   0.064   3.783
 2881W        W 4078   1.740   0.626   7.870
 2882W        W 4079   6.875   7.217   4.084
 2883W        W 4080   2.720   4.298   5.305
 2884W        W 4081   0.961   5.005   7.124
 2885W        W 4082   7.971   4.394   3.352
 2886W        W 4083   7.875   5.553   3.502
 2887W        W 4084   4.836   0.853   6.407
 2888W        W 4085   3.147   5.745   5.887
 2889W        W 4086   1.844   2.214   4.828
 2890W        W 4087   3.966   4.713   7.561
 2891W        W 4088   3.231   0.502   3.725
 2892W        W 4089   3.846   1.435   2.737
 2893W        W 4090   5.974   6.562   0.828
 2894W        W 4091   1.681   2.878   2.678
 2895W        W 4092   3.556   5.427   6.785
 2896W        W 4093   7.958   3.791   7.836
 2897W        W 4094   1.492   4.113   0.441
 2898W        W 4095   5.346   3.719   1.866
 2899W        W 4096   6.950   4.984   4.108
 2900W        W 4097   7.187   1.433   0.056
 2901W        W 4098   2.957   1.383   7.034
 2902W        W 4099   7.131   6.392   4.615
 2903W        W 4100   6.548   6.166   1.709
 2904W        W 4101   0.735   3.389   2.605
 2905W        W 4102   7.471   6.588   2.948
 2906W        W 4103   6.740   5.774   6.680
 2907W        W 4104   1.848   4.244   7.305
 2908W        W 4105   0.741   7.139   2.825
 2909W        W 4106   7.347   5.199   5.365
 2910W        W 4107   6.027   5.222   5.402
 2911W        W 4108   0.199   4.902   2.766
 2912W        W 4109   0.103   1.926   5.540
 2913W        W 4110   3.458   1.292   6.421
 2914W        W 4111   4.924   7.144   5.798
 2915W        W 4112   1.753   3.227   0.841
 2916W        W 4113   0.011   0.347   6.489
 2917W        W 4114   5.957   1.783   5.860
 2918W        W 4115   4.403   5.594   6.848
 2919W        W 4116   0.038   1.318   7.673
 2920W        W 4117   1.552   3.619   4.057
 2921W        W 4118   1.999   6.453   4.619
 2922W        W 4119   4.345   6.035   1.101
 2923W        W 4120   5.342   1.582   2.248
 2924W        W 4121   7.672   7.282   0.382
 2925W        W 4122   1.700   0.416   3.184
 2926W        W 4123   2.213   7.194   0.983
 2927W        W 4124   6.255   0.468   0.821
 2928W        W 4125   6.146   2.516   3.667
 2929W        W 4126   5.005   1.973   5.732
 2930W        W 4127   0.570   4.590   2.863
 2931W        W 4128   3.708   5.585   0.030
 2932W        W 4129   7.382   5.652   7.936
 2933W        W 4130   4.357   3.115   6.390
 2934W        W 4131   1.294   7.133   2.618
 2935W        W 4132   7.555   5.064   6.251
 2936W        W 4133   5.725   3.392   1.641
 2937W        W 4134   5.662   0.735   5.122
 2938W        W 4135   6.843   6.020   6.234
 2939W        W 4136   4.943   2.315   2.041
 2940W        W 4137   7.351   1.161   3.073
 2941W        W 4138   4.334   2.648   4.820
 2942W        W 4139   6.690   1.098   1.598
 2943W        W 4140   3.062   3.244   3.540
 2944W        W 4141   0.854   0.066   3.326
 2945W        W 4142   0.322   1.238   0.690
 2946W        W 4143   0.511   5.687   3.208
 2947W        W 4144   7.196   4.701   4.959
 2948W        W 4145   4.532   1.628   5.858
 2949W        W 4146   7.395   1.030   4.715
 2950W        W 4147   7.669   7.724   6.275
 2951W        W 4148   0.802   6.497   3.760
 2952W        W 4149   6.560   6.379   6.363
 2953W        W 4150   3.797   1.379   0.326
 2954W        W 4151   6.368   0.883   3.857
 2955W        W 4152   6.456   0.607   3.388
 2956W        W 4153   7.161   5.829   5.822
 2957W        W 4154   3.023   0.525   4.222
 2958W        W 4155   0.586   1.288   5.096
 2959W        W 4156   7.395   2.613   2.506
 2960W        W 4157   3.579   7.078   5.626
 2961W        W 4158   1.069   6.801   5.081
 2962W        W 4159   3.610   6.196   1.519
 2963W        W 4160   1.576   7.372   4.357
 2964W        W 4161   4.395   6.037   6.675
 2965W        W 4162   7.734   4.078   4.226
 2966W        W 4163   2.917   0.717   1.827
 2967W        W 4164   7.936   0.045   3.374
 2968W        W 4165   1.687   7.264   1.384
 2969W        W 4166   4.820   1.380   1.488
 2970W        W 4167   5.061   1.881   6.200
 2971W        W 4168   6.287   3.901   7.209
 2972W        W 4169   6.414   6.968   6.282
 2973W        W 4170   2.456   2.126   3.058
 2974W        W 4171   4.535   3.129   1.100
 2975W        W 4172   6.696   7.099   4.926
 2976W        W 4173   4.623   3.627   1.139
 2977W        W 4174   5.945   4.666   5.380
 2978W        W 4175   3.115   7.387   7.729
 2979W        W 4176   1.918   2.978   6.992
 2980W        W 4177   6.150   2.592   5.916
 2981W        W 4178   5.071   7.037   0.369
 2982W        W 4179   1.485   7.108   5.036
 2983W        W 4180   7.614   2.536   4.288
 2984W        W 4181   2.879   2.641   1.273
 2985W        W 4182   5.474   0.937   0.396
 2986W        W 4183   4.135   7.007   5.707
 2987W        W 4184   4.911   2.512   5.450
 2988W        W 4185   2.566   3.027   0.228
 2989W        W 4186   1.639   2.667   7.350
 2990W        W 4187   6.757   7.780   4.432
 2991W        W 4188   1.482   4.089   7.696
 2992W        W 4189   7.366   2.889   4.010
 2993W        W 4190   0.833   4.579   5.175
 2994W        W 4191   0.157   5.371   4.594
 2995W        W 4192   5.314   5.322   3.530
 2996W        W 4193   3.620   1.601   1.189
 2997W        W 4194   3.005   1.747   0.189
 2998W        W 4195   6.544   4.202   4.525
 2999W        W 4196   4.818   4.703   6.672
 3000W        W 4197   6.049   3.731   6.692
 3001W        W 4198   7.040   2.248   7.471
 3002W        W 4199   6.252   2.164   6.140
 3003W        W 4200   5.157   2.816   2.233
 3004W        W 4201   5.155   7.009   2.498
 3005W        W 4202   5.591   5.385   7.412
 3006W        W 4203   0.816   2.248   7.328
 3007W        W 4204   3.940   7.340   2.486
 3008W        W 4205   1.952   6.073   6.014
 3009W        W 4206   5.992   7.705   1.618
 3010W        W 4207   4.662   3.089   7.772
 3011W        W 4208   6.305   3.372   2.875
 3012W        W 4209   4.055   2.844   4.184
 3013W        W 4210   3.670   7.549   7.346
 3014W        W 4211   3.107   4.155   6.390
 3015W        W 4212   4.697   4.268   4.767
 3016W        W 4213   7.077   2.092   3.833
 3017W        W 4214   4.392   3.644   4.943
 3018W        W 4215   7.484   5.038   0.358
 3019W        W 4216   2.018   1.156   6.546
 3020W        W 4217   6.581   4.574   5.619
 3021W        W 4218   6.267   2.332   7.882
 3022W        W 4219   5.195   6.807   6.129
 3023W        W 4220   2.384   6.654   7.205
 3024W        W 4221   3.565   6.423   2.238
 3025W        W 4222   4.917   6.443   7.328
 3026W        W 4223   0.673   7.302   0.692
 3027W        W 4224   2.490   3.171   5.611
 3028W        W 4225   7.359   0.249   4.208
 3029W        W 4226   6.546   1.892   0.675
 3030W        W 4227   2.814   5.380   0.765
 3031W        W 4228   1.911   3.441   6.744
 3032W        W 4229   7.356   0.399   6.885
 3033W        W 4230   3.847   1.849   3.887
 3034W        W 4231   4.835   6.747   6.495
 3035W        W 4232   2.627   0.199   2.204
 3036W        W 4233   7.965   4.383   6.936
 3037W        W 4234   4.598   7.895   6.204
 3038W        W 4235   5.238   3.845   6.036
 3039W        W 4236   6.237   5.294   4.611
 3040W        W 4237   6.464   1.507   1.426
 3041W        W 4238   3.222   3.049   1.437
 3042W        W 4239   1.865   7.054   5.545
 3043W        W 4240   1.870   4.466   4.112
 3044W        W 4241   4.787   4.708   5.009
 3045W        W 4242   0.538   6.621   2.092
 3046W        W 4243   2.206   2.504   5.098
 3047W        W 4244   0.199   2.664   2.385
 3048W        W 4245   2.388   2.894   3.322
 3049W        W 4246   4.762   3.283   6.702
 3050W        W 4247   0.011   6.640   2.133
 3051W        W 4248   0.424   4.086   2.870
 3052W        W 4249   4.348   6.071   2.605
 3053W        W 4250   7.746   4.835   3.349
 3054W        W 4251   2.374   0.800   3.608
 3055W        W 4252   0.866   5.105   7.626
 3056W        W 4253   4.329   6.924   2.543
 3057W        W 4254   6.581   2.494   1.553
 3058W        W 4255   0.096   2.253   4.014
 3059W        W 4256   4.731   5.343   5.846
 3060W        W 4257   7.823   6.377   6.175
 3061W        W 4258   7.460   3.734   4.470
 3062W        W 4259   2.260   6.919   2.093
 3063W        W 4260   1.655   6.398   5.748
 3064W        W 4261   4.495   2.886   6.830
 3065W        W 4262   6.106   5.019   0.801
 3066W        W 4263   4.225   0.833   5.986
 3067W        W 4264   7.116   3.414   2.333
 3068W        W 4265   1.705   6.551   6.245
 3069W        W 4266   3.506   3.556   3.897
 3070W        W 4267   4.222   5.349   7.994
 3071W        W 4268   3.798   1.987   2.012
 3072W        W 4269   2.484   0.855   1.479
 3073W        W 4270   2.493   0.891   5.441
 3074W        W 4271   1.903   4.814   6.494
 3075W        W 4272   1.995   1.598   5.111
 3076W        W 4273   5.116   1.352   2.599
 3077W        W 4274   7.211   6.690   6.082
 3078W        W 4275   7.024   6.258   6.679
 3079W        W 4276   5.457   1.338   7.069
 3080W        W 4277   6.236   3.846   4.679
 3081W        W 4278   4.997   7.370   2.187
 3082W        W 4279   3.320   5.956   4.833
 3083W        W 4280   5.305   1.714   6.755
 3084W        W 4281   6.219   6.928   7.135
 3085W        W 4282   6.839   7.016   2.689
 3086W        W 4283   7.820   0.238   1.153
 3087W        W 4284   0.391   1.970   7.560
 3088W        W 4285   0.704   3.334   5.832
 3089W        W 4286   7.118   1.325   4.286
 3090W        W 4287   6.967   3.881   2.949
 3091W        W 4288   7.328   3.863   2.312
 3092W        W 4289   3.482   7.576   5.630
 3093W        W 4290   4.550   0.363   7.039
 3094W        W 4291   0.932   1.406   5.423
 3095W        W 4292   2.476   6.900   6.206
 3096W        W 4293   6.257   4.506   7.463
 3097W        W 4294   6.836   0.740   3.996
 3098W        W 4295   3.410   7.503   3.382
 3099W        W 4296   2.245   3.002   6.036
 3100W        W 4297   1.736   3.761   4.586
 3101W        W 4298   1.303   6.840   4.637
 3102W        W 4299   5.838   1.012   6.843
 3103W        W 4300   0.253   3.344   5.539
 3104W        W 4301   5.395   5.350   4.708
 3105W        W 4302   1.146   1.681   6.469
 3106W        W 4303   1.109   6.546   2.791
 3107W        W 4304   2.838   6.456   7.571
 3108W        W 4305   7.641   0.391   2.676
 3109W        W 4306   0.761   4.388   6.603
 3110W        W 4307   6.092   0.274   1.284
 3111W        W 4308   2.240   0.195   2.898
 3112W        W 4309   2.090   6.952   1.632
 3113W        W 4310   0.868   6.791   2.487
 3114W        W 4311   3.458   7.616   0.611
 3115W        W 4312   6.345   4.669   4.617
 3116W        W 4313   5.119   0.728   4.881
 3117W        W 4314   3.309   3.119   2.635
 3118W        W 4315   2.782   0.521   3.309
 3119W        W 4316   7.962   3.768   6.359
 3120W        W 4317   1.843   4.437   7.851
 3121W        W 4318   6.792   4.912   4.668
 3122W        W 4319   6.795   1.871   3.414
 3123W        W 4320   2.142   2.488   6.770
 3124W        W 4321   1.977   7.542   3.071
 3125W        W 4322   4.433   2.152   2.679
 3126W        W 4323   7.477   0.812   1.332
 3127W        W 4324   3.612   2.999   2.269
 3128W        W 4325   1.716   3.265   0.226
 3129W        W 4326   1.807   0.803   4.299
 3130W        W 4327   5.569   3.620   3.944
 3131W        W 4328   7.057   2.002   0.095
 3132W        W 4329   6.481   4.268   0.208
 3133W        W 4330   6.110   6.320   6.552
 3134W        W 4331   1.253   6.368   6.075
 3135W        W 4332   4.509   2.980   2.716
 3136W        W 4333   7.290   4.529   1.008
 3137W        W 4334   0.824   3.061   4.860
 3138W        W 4335   5.076   2.845   2.800
 3139W        W 4336   4.312   5.065   4.226
 3140W        W 4337   2.550   3.855   5.265
 3141W        W 4338   2.838   2.910   7.734
 3142W        W 4339   4.730   5.030   2.123
 3143W        W 4340   5.302   4.533   3.096
 3144W        W 4341   5.535   5.510   2.482
 3145W        W 4342   7.332   1.354   6.404
 3146W        W 4343   3.270   3.087   4.014
 3147W        W 4344   5.425   1.206   4.254
 3148W        W 4345   7.820   1.633   1.681
 3149W        W 4346   3.135   4.905   0.947
 3150W        W 4347   1.015   7.828   1.460
 3151W        W 4348   1.355   5.842   7.738
 3152W        W 4349   4.732   0.192   6.578
 3153W        W 4350   6.118   1.947   1.675
 3154W        W 4351   5.865   0.965   1.984
   8.00000   8.00000   8.00000
