Martini system from ../2_Creating_coordinates/TYR-LEU-TYR_aa.pdb
 4228
    1TYR     BB    1   1.683   6.014   1.009
    1TYR    SC1    2   1.401   6.129   0.949
    1TYR    SC2    3   1.465   6.267   0.762
    1TYR    SC3    4   1.258   6.213   0.648
    2LEU     BB    5   1.705   5.974   0.634
    2LEU    SC1    6   1.995   5.852   0.614
    3TYR     BB    7   1.793   6.157   0.384
    3TYR    SC1    8   1.534   6.225   0.269
    3TYR    SC2    9   1.574   6.364   0.077
    3TYR    SC3   10   1.398   6.250  -0.046
    1TYR     BB   11   1.592   5.249   1.884
    1TYR    SC1   12   1.614   5.067   2.136
    1TYR    SC2   13   1.378   5.032   2.167
    1TYR    SC3   14   1.417   4.802   2.232
    2LEU     BB   15   1.335   4.997   1.771
    2LEU    SC1   16   1.256   5.127   1.495
    3TYR     BB   17   1.019   4.950   1.810
    3TYR    SC1   18   1.016   4.730   2.001
    3TYR    SC2   19   0.786   4.676   2.046
    3TYR    SC3   20   0.838   4.439   2.045
    1TYR     BB   21   2.691   3.260   7.041
    1TYR    SC1   22   2.809   3.489   6.866
    1TYR    SC2   23   2.846   3.358   6.667
    1TYR    SC3   24   2.778   3.545   6.528
    2LEU     BB   25   2.496   3.174   6.730
    2LEU    SC1   26   2.338   2.924   6.838
    3TYR     BB   27   2.543   2.997   6.465
    3TYR    SC1   28   2.591   3.204   6.265
    3TYR    SC2   29   2.630   3.094   6.055
    3TYR    SC3   30   2.501   3.264   5.939
    1TYR     BB   31   5.277   6.610   7.303
    1TYR    SC1   32   5.396   6.883   7.215
    1TYR    SC2   33   5.494   6.807   7.009
    1TYR    SC3   34   5.434   7.016   6.900
    2LEU     BB   35   5.169   6.585   6.942
    2LEU    SC1   36   5.028   6.303   6.952
    3TYR     BB   37   5.298   6.481   6.666
    3TYR    SC1   38   5.360   6.733   6.533
    3TYR    SC2   39   5.459   6.681   6.320
    3TYR    SC3   40   5.336   6.862   6.215
    1TYR     BB   41   1.557   4.533   2.988
    1TYR    SC1   42   1.840   4.611   3.091
    1TYR    SC2   43   1.767   4.730   3.287
    1TYR    SC3   44   1.955   4.643   3.414
    2LEU     BB   45   1.490   4.449   3.350
    2LEU    SC1   46   1.190   4.355   3.325
    3TYR     BB   47   1.391   4.607   3.613
    3TYR    SC1   48   1.640   4.634   3.761
    3TYR    SC2   49   1.591   4.752   3.965
    3TYR    SC3   50   1.742   4.607   4.089
    1TYR     BB   51   2.645   3.668   5.285
    1TYR    SC1   52   2.580   3.364   5.293
    1TYR    SC2   53   2.342   3.386   5.322
    1TYR    SC3   54   2.303   3.196   5.176
    2LEU     BB   55   2.342   3.689   5.061
    2LEU    SC1   56   2.341   4.000   5.007
    3TYR     BB   57   2.024   3.721   5.099
    3TYR    SC1   58   1.932   3.450   5.043
    3TYR    SC2   59   1.692   3.448   5.065
    3TYR    SC3   60   1.672   3.303   4.872
    1TYR     BB   61   0.509   0.364   4.441
    1TYR    SC1   62   0.767   0.539   4.433
    1TYR    SC2   63   0.874   0.424   4.250
    1TYR    SC3   64   0.958   0.635   4.163
    2LEU     BB   65   0.520   0.398   4.066
    2LEU    SC1   66   0.265   0.227   3.993
    3TYR     BB   67   0.660   0.244   3.820
    3TYR    SC1   68   0.873   0.430   3.750
    3TYR    SC2   69   0.995   0.335   3.565
    3TYR    SC3   70   1.014   0.554   3.462
    1TYR     BB   71   3.681   7.896   0.414
    1TYR    SC1   72   3.754   7.596   0.451
    1TYR    SC2   73   3.719   7.587   0.689
    1TYR    SC3   74   3.625   7.364   0.670
    2LEU     BB   75   3.394   7.815   0.645
    2LEU    SC1   76   3.259   8.100   0.659
    3TYR     BB   77   3.344   7.805   0.963
    3TYR    SC1   78   3.344   7.517   1.012
    3TYR    SC2   79   3.308   7.484   1.247
    3TYR    SC3   80   3.162   7.295   1.201
    1TYR     BB   81   2.786   2.711   2.979
    1TYR    SC1   82   2.523   2.545   2.969
    1TYR    SC2   83   2.426   2.656   2.778
    1TYR    SC3   84   2.337   2.445   2.698
    2LEU     BB   85   2.787   2.660   2.605
    2LEU    SC1   86   3.050   2.818   2.534
    3TYR     BB   87   2.660   2.808   2.348
    3TYR    SC1   88   2.442   2.627   2.280
    3TYR    SC2   89   2.330   2.718   2.087
    3TYR    SC3   90   2.306   2.496   1.992
    1TYR     BB   91   1.129   3.999   8.185
    1TYR    SC1   92   1.079   4.177   7.935
    1TYR    SC2   93   1.287   4.129   7.823
    1TYR    SC3   94   1.174   4.128   7.608
    2LEU     BB   95   1.253   3.747   7.933
    2LEU    SC1   96   1.332   3.514   8.131
    3TYR     BB   97   1.531   3.680   7.784
    3TYR    SC1   98   1.479   3.784   7.517
    3TYR    SC2   99   1.676   3.745   7.385
    3TYR    SC3  100   1.540   3.685   7.193
    1TYR     BB  101   2.808   0.556   3.351
    1TYR    SC1  102   2.796   0.848   3.245
    1TYR    SC2  103   3.023   0.908   3.300
    1TYR    SC3  104   3.043   1.037   3.096
    2LEU     BB  105   3.143   0.546   3.179
    2LEU    SC1  106   3.228   0.251   3.252
    3TYR     BB  107   3.447   0.624   3.253
    3TYR    SC1  108   3.481   0.871   3.104
    3TYR    SC2  109   3.705   0.950   3.144
    3TYR    SC3  110   3.726   1.017   2.911
    1TYR     BB  111   4.021   5.495   5.917
    1TYR    SC1  112   3.925   5.243   5.761
    1TYR    SC2  113   3.910   5.348   5.544
    1TYR    SC3  114   3.994   5.147   5.437
    2LEU     BB  115   4.249   5.545   5.621
    2LEU    SC1  116   4.393   5.810   5.713
    3TYR     BB  117   4.231   5.687   5.332
    3TYR    SC1  118   4.206   5.455   5.156
    3TYR    SC2  119   4.191   5.537   4.930
    3TYR    SC3  120   4.333   5.357   4.852
    1TYR     BB  121   4.865   5.401   3.647
    1TYR    SC1  122   5.074   5.519   3.845
    1TYR    SC2  123   4.916   5.607   4.004
    1TYR    SC3  124   5.061   5.544   4.188
    2LEU     BB  125   4.695   5.277   3.960
    2LEU    SC1  126   4.447   5.133   3.827
    3TYR     BB  127   4.481   5.391   4.172
    3TYR    SC1  128   4.653   5.450   4.400
    3TYR    SC2  129   4.514   5.539   4.575
    3TYR    SC3  130   4.638   5.413   4.742
    1TYR     BB  131   2.011   7.823   2.181
    1TYR    SC1  132   2.226   7.801   2.405
    1TYR    SC2  133   2.152   7.989   2.535
    1TYR    SC3  134   2.201   7.871   2.741
    2LEU     BB  135   1.773   7.879   2.469
    2LEU    SC1  136   1.506   7.916   2.305
    3TYR     BB  137   1.670   8.131   2.642
    3TYR    SC1  138   1.816   8.091   2.891
    3TYR    SC2  139   1.755   8.271   3.040
    3TYR    SC3  140   1.749   8.117   3.228
    1TYR     BB  141   8.104   3.732   4.709
    1TYR    SC1  142   8.052   4.020   4.812
    1TYR    SC2  143   7.840   3.976   4.917
    1TYR    SC3  144   7.896   4.126   5.100
    2LEU     BB  145   7.985   3.629   5.052
    2LEU    SC1  146   8.008   3.315   5.020
    3TYR     BB  147   7.702   3.566   5.193
    3TYR    SC1  148   7.664   3.807   5.353
    3TYR    SC2  149   7.455   3.783   5.470
    3TYR    SC3  150   7.552   3.882   5.670
    1TYR     BB  151  -0.019   4.533   7.252
    1TYR    SC1  152   0.217   4.417   7.417
    1TYR    SC2  153   0.301   4.627   7.500
    1TYR    SC3  154   0.351   4.526   7.715
    2LEU     BB  155  -0.076   4.749   7.555
    2LEU    SC1  156  -0.324   4.914   7.453
    3TYR     BB  157   0.033   5.032   7.666
    3TYR    SC1  158   0.215   4.945   7.876
    3TYR    SC2  159   0.310   5.142   7.976
    3TYR    SC3  160   0.293   5.043   8.197
    1TYR     BB  161   1.099   7.461   1.362
    1TYR    SC1  162   0.924   7.710   1.425
    1TYR    SC2  163   0.830   7.736   1.205
    1TYR    SC3  164   0.616   7.799   1.300
    2LEU     BB  165   0.792   7.339   1.179
    2LEU    SC1  166   0.904   7.063   1.074
    3TYR     BB  167   0.667   7.371   0.884
    3TYR    SC1  168   0.449   7.558   0.935
    3TYR    SC2  169   0.338   7.599   0.725
    3TYR    SC3  170   0.122   7.595   0.835
    1TYR     BB  171   1.786   6.077   5.635
    1TYR    SC1  172   2.043   6.180   5.493
    1TYR    SC2  173   2.029   6.036   5.301
    1TYR    SC3  174   2.108   6.215   5.157
    2LEU     BB  175   1.634   6.094   5.291
    2LEU    SC1  176   1.344   5.991   5.359
    3TYR     BB  177   1.613   5.901   5.033
    3TYR    SC1  178   1.806   6.024   4.854
    3TYR    SC2  179   1.809   5.895   4.650
    3TYR    SC3  180   1.826   6.098   4.518
    1TYR     BB  181   1.313   1.484   6.463
    1TYR    SC1  182   1.620   1.439   6.483
    1TYR    SC2  183   1.638   1.283   6.301
    1TYR    SC3  184   1.850   1.381   6.233
    2LEU     BB  185   1.377   1.502   6.092
    2LEU    SC1  186   1.081   1.548   5.993
    3TYR     BB  187   1.399   1.294   5.847
    3TYR    SC1  188   1.687   1.287   5.804
    3TYR    SC2  189   1.730   1.135   5.622
    3TYR    SC3  190   1.900   1.284   5.533
    1TYR     BB  191   5.495   3.359   2.523
    1TYR    SC1  192   5.268   3.208   2.373
    1TYR    SC2  193   5.277   3.005   2.503
    1TYR    SC3  194   5.035   2.985   2.495
    2LEU     BB  195   5.328   3.225   2.833
    2LEU    SC1  196   5.522   3.346   3.051
    3TYR     BB  197   5.340   2.956   3.010
    3TYR    SC1  198   5.093   2.824   2.931
    3TYR    SC2  199   5.080   2.616   3.052
    3TYR    SC3  200   4.841   2.648   3.087
    1TYR     BB  201   6.695   5.486   1.885
    1TYR    SC1  202   6.922   5.531   2.093
    1TYR    SC2  203   6.792   5.477   2.289
    1TYR    SC3  204   6.983   5.367   2.389
    2LEU     BB  205   6.622   5.176   2.087
    2LEU    SC1  206   6.377   5.066   1.923
    3TYR     BB  207   6.447   5.102   2.348
    3TYR    SC1  208   6.655   5.074   2.550
    3TYR    SC2  209   6.547   5.018   2.758
    3TYR    SC3  210   6.724   4.860   2.811
    1TYR     BB  211   1.993   0.909   0.530
    1TYR    SC1  212   1.812   1.098   0.362
    1TYR    SC2  213   1.827   0.977   0.155
    1TYR    SC3  214   1.594   1.023   0.106
    2LEU     BB  215   1.800   0.634   0.359
    2LEU    SC1  216   1.943   0.385   0.489
    3TYR     BB  217   1.820   0.469   0.083
    3TYR    SC1  218   1.606   0.590  -0.072
    3TYR    SC2  219   1.602   0.481  -0.287
    3TYR    SC3  220   1.359   0.482  -0.286
    1TYR     BB  221   6.896   3.026   3.784
    1TYR    SC1  222   6.966   2.852   3.535
    1TYR    SC2  223   6.865   2.996   3.370
    1TYR    SC3  224   7.046   2.950   3.215
    2LEU     BB  225   7.007   3.313   3.567
    2LEU    SC1  226   6.958   3.550   3.770
    3TYR     BB  227   6.873   3.508   3.349
    3TYR    SC1  228   6.982   3.400   3.101
    3TYR    SC2  229   6.894   3.532   2.920
    3TYR    SC3  230   7.109   3.526   2.807
    1TYR     BB  231   0.761   6.832   4.104
    1TYR    SC1  232   1.007   6.677   3.995
    1TYR    SC2  233   1.143   6.870   3.945
    1TYR    SC3  234   1.342   6.753   4.019
    2LEU     BB  235   1.019   7.039   4.285
    2LEU    SC1  236   0.826   7.241   4.432
    3TYR     BB  237   1.199   7.298   4.221
    3TYR    SC1  238   1.461   7.177   4.178
    3TYR    SC2  239   1.615   7.354   4.127
    3TYR    SC3  240   1.787   7.248   4.262
    1TYR     BB  241   1.859   0.720   6.247
    1TYR    SC1  242   1.669   0.733   6.493
    1TYR    SC2  243   1.639   0.495   6.519
    1TYR    SC3  244   1.641   0.518   6.761
    2LEU     BB  245   2.027   0.443   6.441
    2LEU    SC1  246   2.254   0.369   6.234
    3TYR     BB  247   1.990   0.125   6.475
    3TYR    SC1  248   1.868   0.109   6.739
    3TYR    SC2  249   1.830  -0.123   6.787
    3TYR    SC3  250   1.898  -0.089   7.018
    1TYR     BB  251   3.909   0.275   6.364
    1TYR    SC1  252   3.756   0.482   6.540
    1TYR    SC2  253   3.901   0.470   6.731
    1TYR    SC3  254   3.878   0.709   6.767
    2LEU     BB  255   4.217   0.457   6.486
    2LEU    SC1  256   4.437   0.287   6.337
    3TYR     BB  257   4.414   0.442   6.740
    3TYR    SC1  258   4.328   0.675   6.893
    3TYR    SC2  259   4.463   0.685   7.092
    3TYR    SC3  260   4.480   0.926   7.073
    1TYR     BB  261   0.834   7.085   3.191
    1TYR    SC1  262   0.713   6.811   3.108
    1TYR    SC2  263   0.513   6.826   3.241
    1TYR    SC3  264   0.384   6.720   3.064
    2LEU     BB  265   0.482   7.212   3.141
    2LEU    SC1  266   0.527   7.515   3.216
    3TYR     BB  267   0.213   7.235   3.318
    3TYR    SC1  268   0.053   7.019   3.206
    3TYR    SC2  269  -0.157   7.016   3.325
    3TYR    SC3  270  -0.276   6.970   3.118
    1TYR     BB  271   7.590   7.041   8.394
    1TYR    SC1  272   7.401   7.143   8.169
    1TYR    SC2  273   7.560   7.130   7.989
    1TYR    SC3  274   7.387   7.054   7.837
    2LEU     BB  275   7.693   6.784   8.138
    2LEU    SC1  276   7.908   6.628   8.309
    3TYR     BB  277   7.908   6.764   7.899
    3TYR    SC1  278   7.735   6.792   7.666
    3TYR    SC2  279   7.876   6.780   7.470
    3TYR    SC3  280   7.709   6.647   7.355
    1TYR     BB  281   6.023   5.321   6.063
    1TYR    SC1  282   6.181   5.236   5.808
    1TYR    SC2  283   6.369   5.139   5.923
    1TYR    SC3  284   6.383   4.963   5.756
    2LEU     BB  285   6.119   4.979   6.189
    2LEU    SC1  286   5.982   4.991   6.473
    3TYR     BB  287   6.369   4.847   6.344
    3TYR    SC1  288   6.501   4.703   6.128
    3TYR    SC2  289   6.695   4.595   6.221
    3TYR    SC3  290   6.652   4.397   6.087
    1TYR     BB  291   5.780   3.635   6.518
    1TYR    SC1  292   5.501   3.679   6.387
    1TYR    SC2  293   5.573   3.833   6.217
    1TYR    SC3  294   5.419   3.733   6.058
    2LEU     BB  295   5.901   3.611   6.161
    2LEU    SC1  296   6.208   3.564   6.216
    3TYR     BB  297   5.999   3.816   5.933
    3TYR    SC1  298   5.767   3.821   5.757
    3TYR    SC2  299   5.818   3.970   5.574
    3TYR    SC3  300   5.710   3.820   5.417
    1TYR     BB  301   4.564   1.314   1.243
    1TYR    SC1  302   4.651   1.080   1.429
    1TYR    SC2  303   4.525   0.907   1.319
    1TYR    SC3  304   4.705   0.748   1.354
    2LEU     BB  305   4.625   1.066   0.966
    2LEU    SC1  306   4.549   1.247   0.720
    3TYR     BB  307   4.457   0.836   0.815
    3TYR    SC1  308   4.573   0.595   0.931
    3TYR    SC2  309   4.461   0.406   0.832
    3TYR    SC3  310   4.671   0.285   0.819
    1TYR     BB  311   1.748   4.151   6.702
    1TYR    SC1  312   1.597   4.136   6.430
    1TYR    SC2  313   1.381   4.079   6.520
    1TYR    SC3  314   1.272   4.220   6.355
    2LEU     BB  315   1.442   4.339   6.818
    2LEU    SC1  316   1.528   4.392   7.117
    3TYR     BB  317   1.154   4.265   6.940
    3TYR    SC1  318   0.981   4.310   6.710
    3TYR    SC2  319   0.755   4.260   6.779
    3TYR    SC3  320   0.672   4.450   6.652
    1TYR     BB  321   4.545   4.557   3.447
    1TYR    SC1  322   4.316   4.560   3.657
    1TYR    SC2  323   4.232   4.339   3.611
    1TYR    SC3  324   4.190   4.302   3.848
    2LEU     BB  325   4.609   4.208   3.576
    2LEU    SC1  326   4.851   4.130   3.391
    3TYR     BB  327   4.499   3.912   3.514
    3TYR    SC1  328   4.326   3.866   3.744
    3TYR    SC2  329   4.230   3.646   3.720
    3TYR    SC3  330   4.256   3.605   3.958
    1TYR     BB  331   6.429   0.019   6.960
    1TYR    SC1  332   6.295   0.237   6.782
    1TYR    SC2  333   6.493   0.299   6.660
    1TYR    SC3  334   6.362   0.326   6.457
    2LEU     BB  335   6.595  -0.087   6.638
    2LEU    SC1  336   6.767  -0.327   6.748
    3TYR     BB  337   6.860  -0.006   6.474
    3TYR    SC1  338   6.747   0.150   6.256
    3TYR    SC2  339   6.930   0.223   6.117
    3TYR    SC3  340   6.798   0.182   5.917
    1TYR     BB  341   4.047   7.072   5.347
    1TYR    SC1  342   3.978   6.772   5.397
    1TYR    SC2  343   4.140   6.680   5.245
    1TYR    SC3  344   4.185   6.497   5.399
    2LEU     BB  345   4.404   6.953   5.366
    2LEU    SC1  346   4.551   7.229   5.317
    3TYR     BB  347   4.623   6.831   5.163
    3TYR    SC1  348   4.623   6.550   5.241
    3TYR    SC2  349   4.781   6.436   5.101
    3TYR    SC3  350   4.857   6.303   5.289
    1TYR     BB  351   5.268   2.023   1.655
    1TYR    SC1  352   5.489   2.229   1.732
    1TYR    SC2  353   5.448   2.227   1.969
    1TYR    SC3  354   5.687   2.243   2.013
    2LEU     BB  355   5.396   1.831   1.953
    2LEU    SC1  356   5.200   1.585   1.942
    3TYR     BB  357   5.341   1.826   2.271
    3TYR    SC1  358   5.579   1.961   2.372
    3TYR    SC2  359   5.560   1.970   2.612
    3TYR    SC3  360   5.797   1.921   2.635
    1TYR     BB  361   6.902   0.533   0.860
    1TYR    SC1  362   6.894   0.739   1.093
    1TYR    SC2  363   6.655   0.762   1.103
    1TYR    SC3  364   6.663   0.776   1.345
    2LEU     BB  365   6.620   0.368   1.047
    2LEU    SC1  366   6.566   0.126   0.851
    3TYR     BB  367   6.299   0.395   1.060
    3TYR    SC1  368   6.264   0.533   1.314
    3TYR    SC2  369   6.027   0.566   1.346
    3TYR    SC3  370   6.049   0.514   1.583
    1TYR     BB  371   7.133   6.758   2.416
    1TYR    SC1  372   7.097   7.066   2.446
    1TYR    SC2  373   7.252   7.130   2.274
    1TYR    SC3  374   7.106   7.312   2.206
    2LEU     BB  375   7.116   6.830   2.047
    2LEU    SC1  376   7.152   6.537   1.937
    3TYR     BB  377   7.323   6.914   1.814
    3TYR    SC1  378   7.258   7.196   1.778
    3TYR    SC2  379   7.402   7.282   1.606
    3TYR    SC3  380   7.219   7.413   1.514
    1TYR     BB  381   4.210   0.424   2.979
    1TYR    SC1  382   4.311   0.420   3.273
    1TYR    SC2  383   4.434   0.214   3.259
    1TYR    SC3  384   4.608   0.305   3.402
    2LEU     BB  385   4.564   0.323   2.896
    2LEU    SC1  386   4.538   0.303   2.583
    3TYR     BB  387   4.730   0.048   2.874
    3TYR    SC1  388   4.887   0.056   3.119
    3TYR    SC2  389   5.022  -0.143   3.125
    3TYR    SC3  390   5.211  -0.017   3.212
    1TYR     BB  391   5.898   0.603   7.542
    1TYR    SC1  392   5.907   0.692   7.840
    1TYR    SC2  393   6.143   0.736   7.850
    1TYR    SC3  394   6.104   0.929   7.993
    2LEU     BB  395   6.123   0.901   7.487
    2LEU    SC1  396   6.165   0.873   7.175
    3TYR     BB  397   6.440   0.961   7.497
    3TYR    SC1  398   6.461   1.108   7.748
    3TYR    SC2  399   6.693   1.165   7.778
    3TYR    SC3  400   6.632   1.384   7.862
    1TYR     BB  401   5.170   7.199   2.041
    1TYR    SC1  402   5.303   6.922   1.988
    1TYR    SC2  403   5.214   6.810   2.181
    1TYR    SC3  404   5.184   6.606   2.053
    2LEU     BB  405   4.864   6.994   2.120
    2LEU    SC1  406   4.665   7.228   2.193
    3TYR     BB  407   4.742   6.845   2.379
    3TYR    SC1  408   4.799   6.566   2.316
    3TYR    SC2  409   4.715   6.432   2.498
    3TYR    SC3  410   4.635   6.264   2.343
    1TYR     BB  411   2.299   2.664   5.745
    1TYR    SC1  412   2.067   2.492   5.630
    1TYR    SC2  413   1.902   2.552   5.795
    1TYR    SC3  414   1.729   2.555   5.625
    2LEU     BB  415   2.034   2.930   5.781
    2LEU    SC1  416   2.210   3.159   5.906
    3TYR     BB  417   1.815   3.014   6.002
    3TYR    SC1  418   1.569   2.916   5.878
    3TYR    SC2  419   1.387   2.968   6.027
    3TYR    SC3  420   1.246   3.028   5.839
    1TYR     BB  421   5.182   0.574   4.768
    1TYR    SC1  422   5.061   0.856   4.820
    1TYR    SC2  423   4.831   0.787   4.833
    1TYR    SC3  424   4.789   0.946   5.012
    2LEU     BB  425   4.944   0.463   5.038
    2LEU    SC1  426   5.012   0.155   5.042
    3TYR     BB  427   4.636   0.368   5.056
    3TYR    SC1  428   4.510   0.605   5.170
    3TYR    SC2  429   4.275   0.557   5.193
    3TYR    SC3  430   4.270   0.671   5.408
    1TYR     BB  431   3.608   6.128   7.027
    1TYR    SC1  432   3.472   6.351   6.858
    1TYR    SC2  433   3.300   6.213   6.761
    1TYR    SC3  434   3.140   6.395   6.780
    2LEU     BB  435   3.255   6.031   7.114
    2LEU    SC1  436   3.316   5.783   7.300
    3TYR     BB  437   3.024   5.845   6.987
    3TYR    SC1  438   2.844   6.045   6.876
    3TYR    SC2  439   2.660   5.929   6.774
    3TYR    SC3  440   2.504   6.094   6.858
    1TYR     BB  441   0.322   1.200   2.006
    1TYR    SC1  442   0.158   1.246   2.266
    1TYR    SC2  443   0.214   1.037   2.373
    1TYR    SC3  444   0.226   1.147   2.589
    2LEU     BB  445   0.589   1.076   2.241
    2LEU    SC1  446   0.811   1.001   2.029
    3TYR     BB  447   0.667   0.797   2.382
    3TYR    SC1  448   0.578   0.845   2.656
    3TYR    SC2  449   0.626   0.647   2.783
    3TYR    SC3  450   0.696   0.781   2.973
    1TYR     BB  451   3.324   7.566   2.736
    1TYR    SC1  452   3.335   7.260   2.790
    1TYR    SC2  453   3.168   7.196   2.629
    1TYR    SC3  454   3.295   6.997   2.571
    2LEU     BB  455   3.318   7.464   2.373
    2LEU    SC1  456   3.302   7.751   2.242
    3TYR     BB  457   3.095   7.381   2.156
    3TYR    SC1  458   3.135   7.093   2.141
    3TYR    SC2  459   2.976   7.006   1.982
    3TYR    SC3  460   3.143   6.853   1.894
    1TYR     BB  461   6.944   7.600   5.296
    1TYR    SC1  462   7.061   7.435   5.533
    1TYR    SC2  463   7.124   7.242   5.404
    1TYR    SC3  464   7.326   7.215   5.536
    2LEU     BB  465   7.250   7.482   5.111
    2LEU    SC1  466   7.197   7.621   4.833
    3TYR     BB  467   7.335   7.225   4.937
    3TYR    SC1  468   7.506   7.083   5.124
    3TYR    SC2  469   7.583   6.882   5.015
    3TYR    SC3  470   7.804   6.911   5.111
    1TYR     BB  471   6.567   5.868   0.277
    1TYR    SC1  472   6.514   6.164   0.360
    1TYR    SC2  473   6.448   6.118   0.587
    1TYR    SC3  474   6.563   6.318   0.664
    2LEU     BB  475   6.739   5.845   0.612
    2LEU    SC1  476   6.827   5.542   0.601
    3TYR     BB  477   6.653   5.782   0.916
    3TYR    SC1  478   6.661   6.048   1.034
    3TYR    SC2  479   6.599   6.027   1.266
    3TYR    SC3  480   6.769   6.189   1.329
    1TYR     BB  481   2.322   5.412   4.267
    1TYR    SC1  482   2.163   5.548   4.038
    1TYR    SC2  483   2.261   5.424   3.856
    1TYR    SC3  484   2.047   5.416   3.742
    2LEU     BB  485   2.244   5.093   4.081
    2LEU    SC1  486   2.390   4.888   4.270
    3TYR     BB  487   2.376   4.924   3.840
    3TYR    SC1  488   2.196   4.988   3.620
    3TYR    SC2  489   2.275   4.872   3.425
    3TYR    SC3  490   2.047   4.819   3.360
    1TYR     BB  491   0.829   1.708   0.062
    1TYR    SC1  492   0.635   1.803   0.286
    1TYR    SC2  493   0.782   1.761   0.472
    1TYR    SC3  494   0.705   1.962   0.584
    2LEU     BB  495   1.088   1.902   0.256
    2LEU    SC1  496   1.339   1.845   0.073
    3TYR     BB  497   1.287   1.846   0.503
    3TYR    SC1  498   1.153   1.989   0.718
    3TYR    SC2  499   1.285   1.961   0.917
    3TYR    SC3  500   1.245   2.192   0.980
    1TYR     BB  501   3.521   3.441   5.827
    1TYR    SC1  502   3.561   3.146   5.920
    1TYR    SC2  503   3.774   3.178   6.027
    1TYR    SC3  504   3.712   3.024   6.204
    2LEU     BB  505   3.643   3.525   6.174
    2LEU    SC1  506   3.631   3.840   6.155
    3TYR     BB  507   3.927   3.571   6.318
    3TYR    SC1  508   3.955   3.324   6.469
    3TYR    SC2  509   4.164   3.334   6.588
    3TYR    SC3  510   4.063   3.232   6.783
    1TYR     BB  511   6.957   2.616   7.312
    1TYR    SC1  512   7.044   2.407   7.526
    1TYR    SC2  513   7.234   2.529   7.609
    1TYR    SC3  514   7.185   2.456   7.836
    2LEU     BB  515   7.022   2.867   7.587
    2LEU    SC1  516   6.951   3.131   7.430
    3TYR     BB  517   7.275   3.032   7.698
    3TYR    SC1  518   7.334   2.887   7.944
    3TYR    SC2  519   7.524   2.993   8.047
    3TYR    SC3  520   7.424   2.965   8.267
    1TYR     BB  521   6.574   4.859   3.445
    1TYR    SC1  522   6.283   4.966   3.473
    1TYR    SC2  523   6.173   4.752   3.461
    1TYR    SC3  524   6.011   4.823   3.628
    2LEU     BB  525   6.461   4.597   3.691
    2LEU    SC1  526   6.728   4.432   3.714
    3TYR     BB  527   6.315   4.310   3.678
    3TYR    SC1  528   6.046   4.378   3.767
    3TYR    SC2  529   5.916   4.175   3.766
    3TYR    SC3  530   5.808   4.239   3.974
    1TYR     BB  531   0.593   4.549   0.487
    1TYR    SC1  532   0.518   4.247   0.499
    1TYR    SC2  533   0.586   4.210   0.727
    1TYR    SC3  534   0.397   4.062   0.763
    2LEU     BB  535   0.430   4.564   0.827
    2LEU    SC1  536   0.472   4.871   0.889
    3TYR     BB  537   0.519   4.517   1.133
    3TYR    SC1  538   0.399   4.258   1.188
    3TYR    SC2  539   0.453   4.200   1.416
    3TYR    SC3  540   0.230   4.110   1.450
    1TYR     BB  541  -0.036   2.515   6.749
    1TYR    SC1  542   0.120   2.717   6.927
    1TYR    SC2  543   0.049   2.629   7.139
    1TYR    SC3  544   0.270   2.669   7.233
    2LEU     BB  545   0.090   2.258   6.995
    2LEU    SC1  546  -0.043   2.001   6.870
    3TYR     BB  547  -0.005   2.138   7.278
    3TYR    SC1  548   0.180   2.269   7.461
    3TYR    SC2  549   0.127   2.194   7.684
    3TYR    SC3  550   0.364   2.180   7.738
    1TYR     BB  551   0.078   0.315   7.216
    1TYR    SC1  552   0.377   0.401   7.229
    1TYR    SC2  553   0.360   0.588   7.078
    1TYR    SC3  554   0.515   0.716   7.213
    2LEU     BB  555   0.009   0.685   7.244
    2LEU    SC1  556  -0.306   0.677   7.234
    3TYR     BB  557  -0.016   0.935   7.042
    3TYR    SC1  558   0.236   1.072   7.089
    3TYR    SC2  559   0.241   1.266   6.946
    3TYR    SC3  560   0.342   1.398   7.123
    1TYR     BB  561   4.415   1.674   3.321
    1TYR    SC1  562   4.291   1.583   3.592
    1TYR    SC2  563   4.063   1.639   3.540
    1TYR    SC3  564   3.984   1.441   3.656
    2LEU     BB  565   4.117   1.498   3.170
    2LEU    SC1  566   4.176   1.555   2.865
    3TYR     BB  567   3.812   1.573   3.097
    3TYR    SC1  568   3.668   1.436   3.311
    3TYR    SC2  569   3.433   1.478   3.278
    3TYR    SC3  570   3.380   1.249   3.339
    1TYR     BB  571   6.428   7.171   3.976
    1TYR    SC1  572   6.505   7.466   4.038
    1TYR    SC2  573   6.645   7.500   3.845
    1TYR    SC3  574   6.563   7.727   3.821
    2LEU     BB  575   6.381   7.297   3.624
    2LEU    SC1  576   6.296   7.026   3.485
    3TYR     BB  577   6.566   7.340   3.364
    3TYR    SC1  578   6.599   7.630   3.364
    3TYR    SC2  579   6.736   7.688   3.176
    3TYR    SC3  580   6.599   7.883   3.131
    1TYR     BB  581   5.117   2.922   8.422
    1TYR    SC1  582   5.156   2.643   8.289
    1TYR    SC2  583   5.042   2.693   8.083
    1TYR    SC3  584   5.205   2.562   7.958
    2LEU     BB  585   5.213   3.054   8.082
    2LEU    SC1  586   5.192   3.364   8.142
    3TYR     BB  587   5.062   3.124   7.806
    3TYR    SC1  588   5.142   2.899   7.639
    3TYR    SC2  589   5.039   2.929   7.423
    3TYR    SC3  590   5.241   2.852   7.312
    1TYR     BB  591   3.584   6.190   1.089
    1TYR    SC1  592   3.418   5.974   1.240
    1TYR    SC2  593   3.563   5.956   1.432
    1TYR    SC3  594   3.371   5.932   1.579
    2LEU     BB  595   3.610   6.353   1.428
    2LEU    SC1  596   3.784   6.604   1.348
    3TYR     BB  597   3.804   6.333   1.684
    3TYR    SC1  598   3.636   6.185   1.871
    3TYR    SC2  599   3.762   6.156   2.074
    3TYR    SC3  600   3.563   6.198   2.207
    1TYR     BB  601   7.785   0.865   4.237
    1TYR    SC1  602   7.971   1.067   4.090
    1TYR    SC2  603   7.952   0.969   3.871
    1TYR    SC3  604   7.950   1.189   3.769
    2LEU     BB  605   7.562   0.908   3.936
    2LEU    SC1  606   7.329   0.712   4.019
    3TYR     BB  607   7.535   0.776   3.644
    3TYR    SC1  608   7.647   0.986   3.475
    3TYR    SC2  609   7.637   0.909   3.247
    3TYR    SC3  610   7.573   1.131   3.172
    1TYR     BB  611   2.218   4.856   1.084
    1TYR    SC1  612   2.422   5.088   1.122
    1TYR    SC2  613   2.603   4.987   0.998
    1TYR    SC3  614   2.665   5.204   0.907
    2LEU     BB  615   2.339   4.859   0.727
    2LEU    SC1  616   2.161   4.625   0.612
    3TYR     BB  617   2.578   4.723   0.559
    3TYR    SC1  618   2.759   4.949   0.525
    3TYR    SC2  619   2.950   4.871   0.400
    3TYR    SC3  620   2.955   5.078   0.273
    1TYR     BB  621   4.459   5.082   1.342
    1TYR    SC1  622   4.257   4.872   1.233
    1TYR    SC2  623   4.148   5.017   1.075
    1TYR    SC3  624   4.130   4.835   0.915
    2LEU     BB  625   4.503   5.172   0.979
    2LEU    SC1  626   4.715   5.404   1.011
    3TYR     BB  627   4.360   5.368   0.766
    3TYR    SC1  628   4.211   5.177   0.605
    3TYR    SC2  629   4.093   5.302   0.436
    3TYR    SC3  630   4.142   5.130   0.271
    1TYR     BB  631   6.611   0.693   4.046
    1TYR    SC1  632   6.312   0.776   4.054
    1TYR    SC2  633   6.324   0.910   4.254
    1TYR    SC3  634   6.168   1.071   4.160
    2LEU     BB  635   6.675   1.056   4.128
    2LEU    SC1  636   6.990   1.049   4.140
    3TYR     BB  637   6.695   1.236   4.395
    3TYR    SC1  638   6.440   1.377   4.387
    3TYR    SC2  639   6.431   1.521   4.580
    3TYR    SC3  640   6.329   1.698   4.448
    1TYR     BB  641   2.186   6.429   2.561
    1TYR    SC1  642   2.410   6.482   2.351
    1TYR    SC2  643   2.566   6.317   2.432
    1TYR    SC3  644   2.631   6.262   2.205
    2LEU     BB  645   2.261   6.066   2.492
    2LEU    SC1  646   2.053   5.934   2.690
    3TYR     BB  647   2.467   5.843   2.601
    3TYR    SC1  648   2.657   5.828   2.382
    3TYR    SC2  649   2.824   5.666   2.441
    3TYR    SC3  650   2.828   5.581   2.214
    1TYR     BB  651   5.700   4.650   1.013
    1TYR    SC1  652   5.714   4.733   0.713
    1TYR    SC2  653   5.949   4.782   0.708
    1TYR    SC3  654   5.968   4.688   0.485
    2LEU     BB  655   6.018   4.462   0.936
    2LEU    SC1  656   6.073   4.340   1.222
    3TYR     BB  657   6.334   4.526   0.931
    3TYR    SC1  658   6.383   4.543   0.645
    3TYR    SC2  659   6.617   4.591   0.615
    3TYR    SC3  660   6.628   4.438   0.426
    1TYR     BB  661   2.678   0.435   8.440
    1TYR    SC1  662   2.422   0.581   8.340
    1TYR    SC2  663   2.520   0.678   8.143
    1TYR    SC3  664   2.315   0.639   8.018
    2LEU     BB  665   2.718   0.337   8.078
    2LEU    SC1  666   2.986   0.171   8.101
    3TYR     BB  667   2.851   0.464   7.814
    3TYR    SC1  668   2.614   0.552   7.668
    3TYR    SC2  669   2.688   0.653   7.462
    3TYR    SC3  670   2.505   0.549   7.341
    1TYR     BB  671   5.720   5.977   1.764
    1TYR    SC1  672   5.628   5.771   1.550
    1TYR    SC2  673   5.602   5.928   1.369
    1TYR    SC3  674   5.689   5.765   1.211
    2LEU     BB  675   5.937   6.111   1.486
    2LEU    SC1  676   6.075   6.349   1.642
    3TYR     BB  677   5.906   6.323   1.245
    3TYR    SC1  678   5.883   6.144   1.016
    3TYR    SC2  679   5.857   6.282   0.820
    3TYR    SC3  680   6.003   6.134   0.693
    1TYR     BB  681   7.047   2.461   4.852
    1TYR    SC1  682   7.165   2.251   4.656
    1TYR    SC2  683   7.359   2.194   4.788
    1TYR    SC3  684   7.338   1.961   4.723
    2LEU     BB  685   7.131   2.206   5.117
    2LEU    SC1  686   7.033   2.364   5.371
    3TYR     BB  687   7.388   2.130   5.296
    3TYR    SC1  688   7.481   1.888   5.163
    3TYR    SC2  689   7.676   1.810   5.281
    3TYR    SC3  690   7.602   1.580   5.259
    1TYR     BB  691   6.614   1.463   3.063
    1TYR    SC1  692   6.876   1.320   3.151
    1TYR    SC2  693   7.019   1.513   3.141
    1TYR    SC3  694   7.138   1.438   3.339
    2LEU     BB  695   6.727   1.733   3.301
    2LEU    SC1  696   6.489   1.936   3.261
    3TYR     BB  697   6.916   1.993   3.289
    3TYR    SC1  698   7.153   1.898   3.430
    3TYR    SC2  699   7.312   2.078   3.434
    3TYR    SC3  700   7.373   2.023   3.663
    1TYR     BB  701   1.797   5.298   6.842
    1TYR    SC1  702   2.042   5.289   7.034
    1TYR    SC2  703   1.994   5.493   7.152
    1TYR    SC3  704   2.068   5.394   7.361
    2LEU     BB  705   1.606   5.395   7.152
    2LEU    SC1  706   1.319   5.428   7.025
    3TYR     BB  707   1.538   5.668   7.310
    3TYR    SC1  708   1.717   5.648   7.539
    3TYR    SC2  709   1.684   5.845   7.674
    3TYR    SC3  710   1.700   5.712   7.876
    1TYR     BB  711   3.210   4.868   7.076
    1TYR    SC1  712   3.266   4.605   7.233
    1TYR    SC2  713   3.330   4.709   7.440
    1TYR    SC3  714   3.217   4.535   7.567
    2LEU     BB  715   3.036   4.976   7.392
    2LEU    SC1  716   2.945   5.264   7.303
    3TYR     BB  717   3.120   5.118   7.669
    3TYR    SC1  718   3.114   4.891   7.853
    3TYR    SC2  719   3.175   4.974   8.071
    3TYR    SC3  720   3.007   4.832   8.175
    1TYR     BB  721   4.839   3.933   6.784
    1TYR    SC1  722   4.870   4.241   6.818
    1TYR    SC2  723   4.817   4.249   7.053
    1TYR    SC3  724   4.985   4.421   7.087
    2LEU     BB  725   5.031   3.916   7.108
    2LEU    SC1  726   5.038   3.603   7.145
    3TYR     BB  727   4.962   3.925   7.423
    3TYR    SC1  728   5.048   4.194   7.492
    3TYR    SC2  729   5.006   4.226   7.727
    3TYR    SC3  730   5.216   4.345   7.753
    1TYR     BB  731   4.863   2.914   6.095
    1TYR    SC1  732   4.576   2.795   6.091
    1TYR    SC2  733   4.549   2.794   5.852
    1TYR    SC3  734   4.430   2.582   5.863
    2LEU     BB  735   4.927   2.671   5.814
    2LEU    SC1  736   5.230   2.740   5.757
    3TYR     BB  737   4.894   2.668   5.494
    3TYR    SC1  738   4.658   2.500   5.462
    3TYR    SC2  739   4.613   2.483   5.227
    3TYR    SC3  740   4.556   2.248   5.251
    1TYR     BB  741   6.444   2.488   1.009
    1TYR    SC1  742   6.403   2.742   0.833
    1TYR    SC2  743   6.197   2.814   0.935
    1TYR    SC3  744   6.267   3.046   0.916
    2LEU     BB  745   6.345   2.716   1.293
    2LEU    SC1  746   6.363   2.509   1.530
    3TYR     BB  747   6.071   2.812   1.432
    3TYR    SC1  748   6.047   3.084   1.328
    3TYR    SC2  749   5.846   3.178   1.420
    3TYR    SC3  750   5.957   3.392   1.451
    1TYR     BB  751   0.662   6.726   5.844
    1TYR    SC1  752   0.487   6.746   5.587
    1TYR    SC2  753   0.363   6.942   5.652
    1TYR    SC3  754   0.369   7.025   5.424
    2LEU     BB  755   0.699   7.098   5.802
    2LEU    SC1  756   0.881   7.158   6.052
    3TYR     BB  757   0.536   7.362   5.890
    3TYR    SC1  758   0.412   7.439   5.638
    3TYR    SC2  759   0.282   7.638   5.679
    3TYR    SC3  760   0.353   7.732   5.466
    1TYR     BB  761   5.335   2.235   7.437
    1TYR    SC1  762   5.102   2.380   7.290
    1TYR    SC2  763   5.227   2.445   7.095
    1TYR    SC3  764   5.035   2.401   6.953
    2LEU     BB  765   5.407   2.089   7.097
    2LEU    SC1  766   5.659   1.913   7.171
    3TYR     BB  767   5.577   2.174   6.836
    3TYR    SC1  768   5.364   2.254   6.654
    3TYR    SC2  769   5.467   2.323   6.448
    3TYR    SC3  770   5.292   2.215   6.320
    1TYR     BB  771   3.019   2.227   3.716
    1TYR    SC1  772   2.801   2.237   3.938
    1TYR    SC2  773   2.909   2.085   4.091
    1TYR    SC3  774   2.837   2.219   4.280
    2LEU     BB  775   3.261   2.255   4.004
    2LEU    SC1  776   3.531   2.248   3.842
    3TYR     BB  777   3.408   2.053   4.207
    3TYR    SC1  778   3.256   2.097   4.451
    3TYR    SC2  779   3.349   1.953   4.621
    3TYR    SC3  780   3.324   2.129   4.787
    1TYR     BB  781   3.243   7.503   7.422
    1TYR    SC1  782   3.499   7.420   7.268
    1TYR    SC2  783   3.388   7.332   7.073
    1TYR    SC3  784   3.562   7.422   6.929
    2LEU     BB  785   3.131   7.637   7.088
    2LEU    SC1  786   2.847   7.748   7.171
    3TYR     BB  787   2.980   7.522   6.828
    3TYR    SC1  788   3.202   7.497   6.640
    3TYR    SC2  789   3.112   7.411   6.434
    3TYR    SC3  790   3.255   7.560   6.306
    1TYR     BB  791   5.867   5.141   8.064
    1TYR    SC1  792   5.718   4.879   8.144
    1TYR    SC2  793   5.497   4.952   8.084
    1TYR    SC3  794   5.444   4.730   8.000
    2LEU     BB  795   5.648   5.126   7.757
    2LEU    SC1  796   5.749   5.387   7.613
    3TYR     BB  797   5.353   5.225   7.674
    3TYR    SC1  798   5.205   4.973   7.678
    3TYR    SC2  799   4.977   5.022   7.619
    3TYR    SC3  800   4.966   4.820   7.485
    1TYR     BB  801   3.124   1.699   1.984
    1TYR    SC1  802   2.827   1.612   2.018
    1TYR    SC2  803   2.821   1.460   1.832
    1TYR    SC3  804   2.681   1.306   1.957
    2LEU     BB  805   3.187   1.332   1.929
    2LEU    SC1  806   3.498   1.341   1.881
    3TYR     BB  807   3.181   1.127   1.680
    3TYR    SC1  808   2.933   0.983   1.731
    3TYR    SC2  809   2.906   0.821   1.554
    3TYR    SC3  810   2.824   0.657   1.713
    1TYR     BB  811   3.427   3.061   0.423
    1TYR    SC1  812   3.557   3.335   0.492
    1TYR    SC2  813   3.452   3.363   0.707
    1TYR    SC3  814   3.656   3.461   0.796
    2LEU     BB  815   3.511   2.975   0.780
    2LEU    SC1  816   3.396   2.681   0.789
    3TYR     BB  817   3.372   3.009   1.069
    3TYR    SC1  818   3.528   3.228   1.182
    3TYR    SC2  819   3.441   3.273   1.402
    3TYR    SC3  820   3.666   3.306   1.488
    1TYR     BB  821   5.333   5.138   2.313
    1TYR    SC1  822   5.375   5.366   2.520
    1TYR    SC2  823   5.380   5.226   2.716
    1TYR    SC3  824   5.553   5.365   2.814
    2LEU     BB  825   5.597   4.958   2.514
    2LEU    SC1  826   5.609   4.689   2.350
    3TYR     BB  827   5.604   4.769   2.775
    3TYR    SC1  828   5.708   4.953   2.976
    3TYR    SC2  829   5.722   4.833   3.184
    3TYR    SC3  830   5.934   4.940   3.235
    1TYR     BB  831   5.583   1.224   5.293
    1TYR    SC1  832   5.861   1.362   5.311
    1TYR    SC2  833   5.794   1.543   5.456
    1TYR    SC3  834   6.006   1.530   5.573
    2LEU     BB  835   5.571   1.286   5.665
    2LEU    SC1  836   5.288   1.162   5.727
    3TYR     BB  837   5.481   1.525   5.861
    3TYR    SC1  838   5.739   1.632   5.944
    3TYR    SC2  839   5.696   1.816   6.094
    3TYR    SC3  840   5.880   1.746   6.236
    1TYR     BB  841   8.056   4.633   3.720
    1TYR    SC1  842   8.041   4.886   3.540
    1TYR    SC2  843   7.952   4.777   3.345
    1TYR    SC3  844   7.811   4.970   3.298
    2LEU     BB  845   7.713   4.560   3.581
    2LEU    SC1  846   7.655   4.289   3.730
    3TYR     BB  847   7.591   4.413   3.321
    3TYR    SC1  848   7.507   4.641   3.160
    3TYR    SC2  849   7.412   4.555   2.957
    3TYR    SC3  850   7.237   4.724   2.964
    1TYR     BB  851   7.407   1.706   1.035
    1TYR    SC1  852   7.325   1.787   0.746
    1TYR    SC2  853   7.522   1.916   0.695
    1TYR    SC3  854   7.522   1.832   0.467
    2LEU     BB  855   7.744   1.640   0.881
    2LEU    SC1  856   7.900   1.547   1.139
    3TYR     BB  857   8.010   1.810   0.814
    3TYR    SC1  858   7.987   1.842   0.525
    3TYR    SC2  859   8.177   1.969   0.451
    3TYR    SC3  860   8.197   1.828   0.254
    1TYR     BB  861   2.508   6.610  -0.037
    1TYR    SC1  862   2.243   6.762  -0.094
    1TYR    SC2  863   2.252   6.909   0.096
    1TYR    SC3  864   2.162   7.092  -0.036
    2LEU     BB  865   2.645   6.953   0.038
    2LEU    SC1  866   2.940   6.873   0.114
    3TYR     BB  867   2.660   7.150   0.293
    3TYR    SC1  868   2.456   7.346   0.225
    3TYR    SC2  869   2.448   7.507   0.405
    3TYR    SC3  870   2.421   7.688   0.245
    1TYR     BB  871   3.766   1.803   7.330
    1TYR    SC1  872   3.570   2.037   7.268
    1TYR    SC2  873   3.386   1.901   7.191
    1TYR    SC3  874   3.227   2.050   7.298
    2LEU     BB  875   3.463   1.641   7.485
    2LEU    SC1  876   3.595   1.370   7.579
    3TYR     BB  877   3.218   1.457   7.385
    3TYR    SC1  878   2.999   1.649   7.382
    3TYR    SC2  879   2.801   1.533   7.309
    3TYR    SC3  880   2.667   1.652   7.472
    1TYR     BB  881   3.272   0.567   5.297
    1TYR    SC1  882   3.545   0.521   5.440
    1TYR    SC2  883   3.495   0.649   5.638
    1TYR    SC3  884   3.613   0.487   5.776
    2LEU     BB  885   3.125   0.499   5.637
    2LEU    SC1  886   2.819   0.533   5.566
    3TYR     BB  887   3.056   0.669   5.902
    3TYR    SC1  888   3.271   0.587   6.080
    3TYR    SC2  889   3.241   0.703   6.289
    3TYR    SC3  890   3.303   0.504   6.413
    1TYR     BB  891   6.770   5.803   3.540
    1TYR    SC1  892   6.970   6.005   3.667
    1TYR    SC2  893   6.856   6.030   3.877
    1TYR    SC3  894   7.068   6.040   3.995
    2LEU     BB  895   6.782   5.637   3.878
    2LEU    SC1  896   6.582   5.400   3.824
    3TYR     BB  897   6.629   5.667   4.160
    3TYR    SC1  898   6.831   5.801   4.321
    3TYR    SC2  899   6.738   5.836   4.541
    3TYR    SC3  900   6.951   5.779   4.643
    1TYR     BB  901   4.328   4.860   2.706
    1TYR    SC1  902   4.584   5.005   2.606
    1TYR    SC2  903   4.694   4.811   2.515
    1TYR    SC3  904   4.778   4.942   2.329
    2LEU     BB  905   4.342   4.686   2.372
    2LEU    SC1  906   4.088   4.501   2.402
    3TYR     BB  907   4.485   4.425   2.249
    3TYR    SC1  908   4.698   4.546   2.091
    3TYR    SC2  909   4.822   4.368   1.987
    3TYR    SC3  910   4.841   4.496   1.782
    1TYR     BB  911   6.603   3.539   0.011
    1TYR    SC1  912   6.909   3.528  -0.040
    1TYR    SC2  913   6.978   3.573   0.186
    1TYR    SC3  914   7.163   3.416   0.164
    2LEU     BB  915   6.686   3.335   0.318
    2LEU    SC1  916   6.395   3.304   0.437
    3TYR     BB  917   6.776   3.393   0.621
    3TYR    SC1  918   7.058   3.324   0.612
    3TYR    SC2  919   7.150   3.360   0.831
    3TYR    SC3  920   7.283   3.158   0.813
    1TYR     BB  921   4.531   5.829   7.402
    1TYR    SC1  922   4.287   5.864   7.213
    1TYR    SC2  923   4.180   5.654   7.264
    1TYR    SC3  924   3.961   5.759   7.253
    2LEU     BB  925   4.274   5.707   7.649
    2LEU    SC1  926   4.465   5.643   7.892
    3TYR     BB  927   4.132   5.426   7.721
    3TYR    SC1  928   3.867   5.465   7.605
    3TYR    SC2  929   3.740   5.265   7.647
    3TYR    SC3  930   3.542   5.397   7.694
    1TYR     BB  931   4.179   6.442   4.133
    1TYR    SC1  932   4.485   6.484   4.090
    1TYR    SC2  933   4.467   6.669   3.936
    1TYR    SC3  934   4.661   6.775   4.037
    2LEU     BB  935   4.170   6.818   4.158
    2LEU    SC1  936   3.860   6.857   4.204
    3TYR     BB  937   4.144   7.067   3.955
    3TYR    SC1  938   4.418   7.166   3.951
    3TYR    SC2  939   4.424   7.356   3.802
    3TYR    SC3  940   4.573   7.473   3.953
    1TYR     BB  941   8.031   3.231   2.580
    1TYR    SC1  942   8.200   3.483   2.511
    1TYR    SC2  943   8.216   3.443   2.274
    1TYR    SC3  944   8.193   3.681   2.229
    2LEU     BB  945   7.834   3.326   2.273
    2LEU    SC1  946   7.623   3.091   2.275
    3TYR     BB  947   7.852   3.271   1.956
    3TYR    SC1  948   7.950   3.528   1.859
    3TYR    SC2  949   7.972   3.511   1.620
    3TYR    SC3  950   7.886   3.737   1.593
    1TYR     BB  951   6.206   1.993   3.963
    1TYR    SC1  952   6.417   2.168   4.110
    1TYR    SC2  953   6.266   2.340   4.183
    1TYR    SC3  954   6.383   2.359   4.394
    2LEU     BB  955   5.994   2.060   4.267
    2LEU    SC1  956   5.735   1.900   4.182
    3TYR     BB  957   5.789   2.289   4.364
    3TYR    SC1  958   5.951   2.430   4.560
    3TYR    SC2  959   5.817   2.610   4.649
    3TYR    SC3  960   5.903   2.569   4.872
    1TYR     BB  961   0.278   2.809   4.761
    1TYR    SC1  962   0.434   2.594   4.921
    1TYR    SC2  963   0.246   2.451   4.969
    1TYR    SC3  964   0.384   2.253   4.938
    2LEU     BB  965   0.112   2.513   4.597
    2LEU    SC1  966  -0.083   2.667   4.402
    3TYR     BB  967  -0.141   2.323   4.658
    3TYR    SC1  968  -0.009   2.080   4.751
    3TYR    SC2  969  -0.181   1.920   4.804
    3TYR    SC3  970  -0.048   1.741   4.708
    1TYR     BB  971   7.437   0.198   1.928
    1TYR    SC1  972   7.267   0.451   1.865
    1TYR    SC2  973   7.437   0.570   1.743
    1TYR    SC3  974   7.270   0.654   1.587
    2LEU     BB  975   7.545   0.227   1.567
    2LEU    SC1  976   7.741  -0.020   1.554
    3TYR     BB  977   7.773   0.384   1.402
    3TYR    SC1  978   7.617   0.596   1.277
    3TYR    SC2  979   7.769   0.729   1.146
    3TYR    SC3  980   7.603   0.748   0.969
    1TYR     BB  981   3.213   4.124   6.552
    1TYR    SC1  982   3.206   4.379   6.373
    1TYR    SC2  983   3.104   4.276   6.180
    1TYR    SC3  984   2.973   4.476   6.139
    2LEU     BB  985   2.862   4.070   6.423
    2LEU    SC1  986   2.795   3.801   6.573
    3TYR     BB  987   2.725   3.931   6.167
    3TYR    SC1  988   2.648   4.164   6.010
    3TYR    SC2  989   2.541   4.084   5.809
    3TYR    SC3  990   2.376   4.262   5.823
    1TYR     BB  991   2.627   3.724   2.226
    1TYR    SC1  992   2.552   3.563   2.481
    1TYR    SC2  993   2.745   3.623   2.611
    1TYR    SC3  994   2.608   3.637   2.812
    2LEU     BB  995   2.717   3.996   2.470
    2LEU    SC1  996   2.815   4.216   2.266
    3TYR     BB  997   2.975   4.080   2.644
    3TYR    SC1  998   2.895   3.995   2.910
    3TYR    SC2  999   3.076   4.048   3.061
    3TYR    SC3 1000   2.917   4.118   3.231
    4W        W 1001   0.349   1.633   2.100
    5W        W 1002   4.010   5.867   1.494
    6W        W 1003   5.106   7.621   1.686
    7W        W 1004   3.772   4.299   0.403
    8W        W 1005   5.683   0.072   4.002
    9W        W 1006   2.537   3.319   3.106
   10W        W 1007   3.102   5.951   3.455
   11W        W 1008   3.373   7.676   5.025
   12W        W 1009   3.635   6.731   2.684
   13W        W 1010   3.112   3.406   6.189
   14W        W 1011   3.682   2.669   5.460
   15W        W 1012   6.617   2.508   3.357
   16W        W 1013   2.972   7.428   4.929
   17W        W 1014   6.117   6.459   3.240
   18W        W 1015   7.256   3.126   1.905
   19W        W 1016   4.479   7.132   6.676
   20W        W 1017   3.548   2.037   0.913
   21W        W 1018   4.204   3.886   1.026
   22W        W 1019   3.255   5.763   3.879
   23W        W 1020   2.552   6.182   3.404
   24W        W 1021   5.594   4.501   0.154
   25W        W 1022   3.957   5.410   1.281
   26W        W 1023   0.331   3.089   3.924
   27W        W 1024   5.364   2.299   5.526
   28W        W 1025   2.937   0.037   5.008
   29W        W 1026   3.032   2.144   5.556
   30W        W 1027   0.429   6.932   3.776
   31W        W 1028   2.769   0.900   5.002
   32W        W 1029   1.095   7.587   5.519
   33W        W 1030   7.929   1.101   3.258
   34W        W 1031   0.180   4.842   4.244
   35W        W 1032   6.949   4.572   2.275
   36W        W 1033   7.654   6.841   5.972
   37W        W 1034   3.181   1.827   1.211
   38W        W 1035   4.354   0.291   4.467
   39W        W 1036   3.430   4.024   2.538
   40W        W 1037   2.630   7.135   2.585
   41W        W 1038   1.440   7.637   5.136
   42W        W 1039   5.533   0.490   3.665
   43W        W 1040   2.251   0.633   4.073
   44W        W 1041   3.736   4.560   6.753
   45W        W 1042   7.851   2.797   3.902
   46W        W 1043   4.599   2.116   6.133
   47W        W 1044   5.681   4.462   4.970
   48W        W 1045   5.676   1.433   2.966
   49W        W 1046   4.819   6.067   6.364
   50W        W 1047   0.606   2.177   6.213
   51W        W 1048   4.639   0.850   7.747
   52W        W 1049   1.119   5.630   1.968
   53W        W 1050   1.180   3.272   4.125
   54W        W 1051   3.481   0.246   1.393
   55W        W 1052   1.407   0.692   3.619
   56W        W 1053   1.602   2.575   3.865
   57W        W 1054   3.987   7.321   3.032
   58W        W 1055   1.855   6.457   3.898
   59W        W 1056   5.253   5.959   0.677
   60W        W 1057   4.050   5.464   2.603
   61W        W 1058   2.220   4.370   2.646
   62W        W 1059   6.449   1.641   4.888
   63W        W 1060   0.387   1.607   7.962
   64W        W 1061   1.261   6.947   0.428
   65W        W 1062   2.307   7.508   1.384
   66W        W 1063   6.442   3.540   3.828
   67W        W 1064   3.367   3.532   4.367
   68W        W 1065   3.230   4.191   0.394
   69W        W 1066   4.803   0.282   2.107
   70W        W 1067   3.462   3.638   5.146
   71W        W 1068   6.619   6.519   2.671
   72W        W 1069   7.309   0.266   0.194
   73W        W 1070   3.211   0.699   7.320
   74W        W 1071   6.292   0.807   0.486
   75W        W 1072   5.880   5.100   7.157
   76W        W 1073   2.098   2.272   1.668
   77W        W 1074   6.438   4.924   7.950
   78W        W 1075   5.937   5.515   6.608
   79W        W 1076   1.608   1.490   1.416
   80W        W 1077   0.024   0.654   7.928
   81W        W 1078   6.084   2.032   2.232
   82W        W 1079   5.349   6.095   3.993
   83W        W 1080   1.816   2.172   7.150
   84W        W 1081   5.173   2.658   1.706
   85W        W 1082   6.188   7.690   0.733
   86W        W 1083   7.814   7.422   5.045
   87W        W 1084   0.819   0.266   0.956
   88W        W 1085   0.750   1.601   4.399
   89W        W 1086   1.797   0.656   7.022
   90W        W 1087   4.102   4.177   4.143
   91W        W 1088   2.391   5.181   5.671
   92W        W 1089   0.259   7.046   0.824
   93W        W 1090   5.650   7.086   2.695
   94W        W 1091   6.056   5.766   5.520
   95W        W 1092   5.269   3.839   4.784
   96W        W 1093   7.915   3.693   5.877
   97W        W 1094   2.142   3.523   0.605
   98W        W 1095   5.241   5.224   4.271
   99W        W 1096   2.032   0.198   0.976
  100W        W 1097   2.383   2.228   2.244
  101W        W 1098   6.591   0.284   2.179
  102W        W 1099   0.546   4.305   3.982
  103W        W 1100   2.239   4.351   6.496
  104W        W 1101   6.496   5.044   1.240
  105W        W 1102   2.076   4.846   5.023
  106W        W 1103   0.275   5.572   1.494
  107W        W 1104   7.405   3.890   1.145
  108W        W 1105   3.515   4.667   4.942
  109W        W 1106   3.714   5.802   5.639
  110W        W 1107   0.394   3.751   3.247
  111W        W 1108   6.165   6.953   1.111
  112W        W 1109   2.906   4.490   0.247
  113W        W 1110   3.678   0.463   4.635
  114W        W 1111   3.544   5.250   4.852
  115W        W 1112   7.724   7.128   1.245
  116W        W 1113   4.011   0.806   7.564
  117W        W 1114   0.266   3.307   6.067
  118W        W 1115   0.569   2.820   0.459
  119W        W 1116   5.281   7.196   5.432
  120W        W 1117   1.384   0.021   3.146
  121W        W 1118   3.922   2.298   4.099
  122W        W 1119   5.561   0.088   6.628
  123W        W 1120   0.770   0.423   0.434
  124W        W 1121   2.607   7.020   6.969
  125W        W 1122   2.810   7.885   0.487
  126W        W 1123   3.742   4.648   2.876
  127W        W 1124   2.997   4.317   1.667
  128W        W 1125   1.083   6.169   5.039
  129W        W 1126   6.865   3.091   5.000
  130W        W 1127   3.990   4.941   5.149
  131W        W 1128   5.907   7.058   7.581
  132W        W 1129   3.354   0.720   1.981
  133W        W 1130   6.021   3.539   3.652
  134W        W 1131   4.883   2.466   7.680
  135W        W 1132   7.565   5.936   3.753
  136W        W 1133   4.262   7.625   6.543
  137W        W 1134   4.190   2.869   5.895
  138W        W 1135   7.276   5.425   2.118
  139W        W 1136   6.424   7.762   5.954
  140W        W 1137   2.332   2.230   1.251
  141W        W 1138   6.511   6.696   6.796
  142W        W 1139   0.846   5.585   3.603
  143W        W 1140   4.572   5.569   2.581
  144W        W 1141   3.830   6.778   4.809
  145W        W 1142   4.149   3.775   0.503
  146W        W 1143   4.457   1.760   0.882
  147W        W 1144   1.068   1.917   5.980
  148W        W 1145   5.990   6.957   3.045
  149W        W 1146   0.845   5.393   2.613
  150W        W 1147   2.615   3.713   1.550
  151W        W 1148   3.555   4.534   2.444
  152W        W 1149   4.290   5.252   2.235
  153W        W 1150   2.818   0.909   4.513
  154W        W 1151   7.292   5.438   1.135
  155W        W 1152   4.900   2.969   1.462
  156W        W 1153   4.043   3.164   1.239
  157W        W 1154   2.314   6.966   3.819
  158W        W 1155   5.000   7.333   7.344
  159W        W 1156   3.631   5.801   0.429
  160W        W 1157   6.190   6.168   2.866
  161W        W 1158   0.307   4.777   6.065
  162W        W 1159   0.049   0.664   0.817
  163W        W 1160   0.564   4.822   1.825
  164W        W 1161   4.805   5.036   6.253
  165W        W 1162   3.710   7.655   3.799
  166W        W 1163   4.274   3.116   2.080
  167W        W 1164   5.786   5.809   0.667
  168W        W 1165   0.612   1.030   7.085
  169W        W 1166   7.280   1.793   5.959
  170W        W 1167   2.590   4.619   1.098
  171W        W 1168   0.505   5.802   6.467
  172W        W 1169   1.273   0.657   6.567
  173W        W 1170   7.214   5.267   4.884
  174W        W 1171   0.325   6.638   1.251
  175W        W 1172   4.013   7.430   1.986
  176W        W 1173   2.861   6.097   1.457
  177W        W 1174   7.281   6.851   6.945
  178W        W 1175   3.774   1.376   4.335
  179W        W 1176   3.628   3.244   0.059
  180W        W 1177   7.741   0.449   0.390
  181W        W 1178   1.469   6.671   5.382
  182W        W 1179   2.608   7.013   1.645
  183W        W 1180   6.769   5.310   0.874
  184W        W 1181   6.324   2.586   2.869
  185W        W 1182   6.121   1.236   7.826
  186W        W 1183   7.235   4.956   6.943
  187W        W 1184   3.865   0.144   3.816
  188W        W 1185   7.603   5.308   4.528
  189W        W 1186   5.208   1.841   7.851
  190W        W 1187   4.545   3.698   6.398
  191W        W 1188   3.100   4.999   4.788
  192W        W 1189   5.971   3.294   4.615
  193W        W 1190   2.201   3.642   2.003
  194W        W 1191   1.229   1.111   5.164
  195W        W 1192   1.495   6.815   1.374
  196W        W 1193   0.800   1.759   3.437
  197W        W 1194   3.677   4.566   4.058
  198W        W 1195   3.060   1.377   1.006
  199W        W 1196   1.439   3.755   2.342
  200W        W 1197   6.225   4.142   0.710
  201W        W 1198   7.406   4.118   1.879
  202W        W 1199   4.317   0.499   1.908
  203W        W 1200   2.654   3.201   0.720
  204W        W 1201   1.345   2.618   2.437
  205W        W 1202   2.368   0.020   4.519
  206W        W 1203   2.731   6.631   0.322
  207W        W 1204   0.428   1.998   1.685
  208W        W 1205   5.736   6.311   2.823
  209W        W 1206   1.161   0.086   5.427
  210W        W 1207   5.285   7.593   5.142
  211W        W 1208   6.196   7.507   4.890
  212W        W 1209   3.485   4.051   4.160
  213W        W 1210   5.497   6.915   4.538
  214W        W 1211   2.980   2.287   7.647
  215W        W 1212   3.681   2.474   1.733
  216W        W 1213   1.186   3.504   2.720
  217W        W 1214   2.179   5.064   7.217
  218W        W 1215   4.348   6.632   6.331
  219W        W 1216   0.068   0.328   2.342
  220W        W 1217   5.498   6.883   4.043
  221W        W 1218   6.524   1.236   6.236
  222W        W 1219   5.849   0.071   4.560
  223W        W 1220   7.408   6.166   4.959
  224W        W 1221   5.832   7.786   6.897
  225W        W 1222   0.698   6.968   1.731
  226W        W 1223   2.499   6.618   5.107
  227W        W 1224   2.303   2.590   3.904
  228W        W 1225   0.907   7.773   0.823
  229W        W 1226   0.171   7.871   4.160
  230W        W 1227   0.862   3.544   6.816
  231W        W 1228   3.565   0.598   0.972
  232W        W 1229   7.556   5.320   3.163
  233W        W 1230   7.566   2.429   7.824
  234W        W 1231   3.559   1.697   5.985
  235W        W 1232   6.247   7.451   7.550
  236W        W 1233   1.325   5.009   3.067
  237W        W 1234   3.618   0.917   3.868
  238W        W 1235   1.347   4.575   1.821
  239W        W 1236   0.626   1.066   4.390
  240W        W 1237   6.745   7.306   0.052
  241W        W 1238   6.058   3.145   0.224
  242W        W 1239   2.843   6.163   4.726
  243W        W 1240   1.682   5.368   1.491
  244W        W 1241   3.664   4.151   3.681
  245W        W 1242   2.867   2.023   2.130
  246W        W 1243   3.002   6.463   5.114
  247W        W 1244   7.841   5.773   4.474
  248W        W 1245   6.988   1.672   0.535
  249W        W 1246   7.317   7.251   0.731
  250W        W 1247   2.995   1.542   6.545
  251W        W 1248   5.791   3.202   6.485
  252W        W 1249   1.278   4.324   5.223
  253W        W 1250   1.768   4.770   0.877
  254W        W 1251   4.800   6.174   2.801
  255W        W 1252   2.117   1.289   4.259
  256W        W 1253   0.995   2.283   0.036
  257W        W 1254   2.627   0.058   3.162
  258W        W 1255   6.572   3.457   4.822
  259W        W 1256   5.078   0.628   5.918
  260W        W 1257   2.301   7.087   5.753
  261W        W 1258   1.257   2.988   3.634
  262W        W 1259   1.958   2.741   4.232
  263W        W 1260   1.209   3.848   3.757
  264W        W 1261   1.171   5.164   0.345
  265W        W 1262   6.131   1.084   5.860
  266W        W 1263   6.559   4.297   3.034
  267W        W 1264   1.930   4.403   3.622
  268W        W 1265   1.653   2.963   7.762
  269W        W 1266   7.497   7.503   2.703
  270W        W 1267   0.845   0.004   1.893
  271W        W 1268   3.685   4.593   1.142
  272W        W 1269   2.903   4.153   4.253
  273W        W 1270   4.763   6.233   1.425
  274W        W 1271   1.429   1.504   5.383
  275W        W 1272   3.548   0.353   4.147
  276W        W 1273   2.900   7.568   1.425
  277W        W 1274   1.814   4.223   0.816
  278W        W 1275   1.022   4.864   2.682
  279W        W 1276   2.301   1.283   3.573
  280W        W 1277   5.328   7.070   1.319
  281W        W 1278   5.922   4.946   4.852
  282W        W 1279   3.528   6.732   6.577
  283W        W 1280   7.641   5.803   3.075
  284W        W 1281   5.314   0.911   3.796
  285W        W 1282   5.943   4.663   6.881
  286W        W 1283   1.579   5.387   0.174
  287W        W 1284   0.846   4.409   1.617
  288W        W 1285   7.103   5.197   3.607
  289W        W 1286   4.036   5.543   3.924
  290W        W 1287   0.108   5.363   5.096
  291W        W 1288   7.672   6.207   4.515
  292W        W 1289   4.218   6.098   3.471
  293W        W 1290   5.229   4.522   7.471
  294W        W 1291   1.375   3.430   1.164
  295W        W 1292   1.671   4.157   5.560
  296W        W 1293   1.383   5.875   3.643
  297W        W 1294   5.422   3.768   7.884
  298W        W 1295   6.533   5.993   5.084
  299W        W 1296   4.435   3.823   1.570
  300W        W 1297   5.675   6.250   7.689
  301W        W 1298   2.804   4.582   3.176
  302W        W 1299   4.342   0.358   3.837
  303W        W 1300   3.775   3.827   1.334
  304W        W 1301   1.353   5.632   0.531
  305W        W 1302   0.524   2.258   3.431
  306W        W 1303   5.677   6.043   5.750
  307W        W 1304   0.087   7.329   0.257
  308W        W 1305   1.748   1.354   0.943
  309W        W 1306   1.742   1.862   7.722
  310W        W 1307   0.114   5.180   2.143
  311W        W 1308   2.731   4.151   6.901
  312W        W 1309   0.792   5.281   1.646
  313W        W 1310   0.422   5.714   0.978
  314W        W 1311   2.350   4.732   5.471
  315W        W 1312   4.647   7.242   4.709
  316W        W 1313   7.841   4.210   2.193
  317W        W 1314   4.992   0.675   6.877
  318W        W 1315   0.535   4.424   3.478
  319W        W 1316   1.979   2.104   6.411
  320W        W 1317   3.150   3.798   1.634
  321W        W 1318   4.588   6.991   0.788
  322W        W 1319   6.939   4.095   0.989
  323W        W 1320   2.481   2.362   6.005
  324W        W 1321   6.224   0.691   6.822
  325W        W 1322   0.632   3.857   7.284
  326W        W 1323   0.524   7.235   5.057
  327W        W 1324   6.416   6.936   7.574
  328W        W 1325   7.141   6.937   4.678
  329W        W 1326   5.016   5.636   1.548
  330W        W 1327   7.176   0.692   0.412
  331W        W 1328   1.617   1.242   2.597
  332W        W 1329   2.148   5.449   2.572
  333W        W 1330   3.105   0.486   4.764
  334W        W 1331   2.191   7.073   3.340
  335W        W 1332   6.899   1.528   7.660
  336W        W 1333   5.704   5.121   3.873
  337W        W 1334   0.520   2.210   6.938
  338W        W 1335   2.932   0.801   0.370
  339W        W 1336   7.000   5.390   5.643
  340W        W 1337   2.837   5.883   7.389
  341W        W 1338   6.816   7.096   0.521
  342W        W 1339   4.889   1.207   6.940
  343W        W 1340   6.705   3.832   0.546
  344W        W 1341   6.985   6.398   1.029
  345W        W 1342   1.004   5.143   2.218
  346W        W 1343   5.003   2.040   3.247
  347W        W 1344   3.324   5.958   2.361
  348W        W 1345   6.530   3.909   6.745
  349W        W 1346   2.133   6.592   5.974
  350W        W 1347   0.997   2.101   5.539
  351W        W 1348   1.283   4.261   2.374
  352W        W 1349   2.328   1.500   4.662
  353W        W 1350   6.342   1.268   6.690
  354W        W 1351   1.301   6.551   2.309
  355W        W 1352   0.777   1.492   0.827
  356W        W 1353   2.547   1.040   6.531
  357W        W 1354   3.382   1.587   2.877
  358W        W 1355   7.406   4.704   5.392
  359W        W 1356   6.076   0.833   5.340
  360W        W 1357   7.273   3.416   1.170
  361W        W 1358   6.681   7.391   7.347
  362W        W 1359   5.999   6.606   7.491
  363W        W 1360   1.627   0.717   2.411
  364W        W 1361   0.098   2.832   0.606
  365W        W 1362   5.570   2.933   1.837
  366W        W 1363   5.911   3.237   3.193
  367W        W 1364   7.768   3.432   4.713
  368W        W 1365   4.981   5.828   7.675
  369W        W 1366   4.575   2.868   4.304
  370W        W 1367   0.994   4.818   1.317
  371W        W 1368   4.481   7.411   7.134
  372W        W 1369   6.496   1.454   1.899
  373W        W 1370   5.963   5.419   1.042
  374W        W 1371   5.321   1.660   3.240
  375W        W 1372   6.156   3.098   3.705
  376W        W 1373   4.818   5.202   6.966
  377W        W 1374   5.537   3.717   0.458
  378W        W 1375   4.323   2.836   0.552
  379W        W 1376   0.886   5.340   6.281
  380W        W 1377   4.573   1.429   2.257
  381W        W 1378   0.306   1.856   4.245
  382W        W 1379   7.326   2.967   4.964
  383W        W 1380   5.152   1.309   0.457
  384W        W 1381   4.337   3.721   2.079
  385W        W 1382   2.805   0.133   5.663
  386W        W 1383   6.462   2.244   2.499
  387W        W 1384   2.413   5.702   5.113
  388W        W 1385   2.356   4.649   0.183
  389W        W 1386   2.193   3.020   0.659
  390W        W 1387   3.073   3.541   4.860
  391W        W 1388   6.039   6.093   7.368
  392W        W 1389   7.456   5.787   1.422
  393W        W 1390   5.119   3.721   2.772
  394W        W 1391   7.500   3.732   7.005
  395W        W 1392   4.862   0.087   1.302
  396W        W 1393   1.016   1.658   3.062
  397W        W 1394   6.397   4.930   5.059
  398W        W 1395   0.573   6.303   0.535
  399W        W 1396   1.921   5.198   1.019
  400W        W 1397   2.253   4.285   2.069
  401W        W 1398   0.523   0.084   2.524
  402W        W 1399   7.573   0.969   0.532
  403W        W 1400   5.668   7.368   6.679
  404W        W 1401   0.892   2.859   2.310
  405W        W 1402   7.206   6.744   0.661
  406W        W 1403   3.928   5.259   4.369
  407W        W 1404   6.934   1.523   1.598
  408W        W 1405   6.265   3.953   2.164
  409W        W 1406   0.241   3.307   1.316
  410W        W 1407   0.183   1.030   1.247
  411W        W 1408   0.825   0.474   5.265
  412W        W 1409   5.184   4.770   1.939
  413W        W 1410   5.576   7.464   1.775
  414W        W 1411   1.752   2.802   3.190
  415W        W 1412   2.681   4.176   7.386
  416W        W 1413   6.379   5.864   6.323
  417W        W 1414   1.168   3.771   4.365
  418W        W 1415   2.601   7.345   6.069
  419W        W 1416   3.601   2.142   5.778
  420W        W 1417   0.563   6.180   0.034
  421W        W 1418   0.615   1.893   5.790
  422W        W 1419   3.021   6.917   3.273
  423W        W 1420   2.204   3.416   0.101
  424W        W 1421   6.666   3.551   7.171
  425W        W 1422   3.953   1.633   4.995
  426W        W 1423   6.228   2.115   7.354
  427W        W 1424   0.166   5.804   4.064
  428W        W 1425   2.339   0.609   0.742
  429W        W 1426   3.541   1.808   0.365
  430W        W 1427   0.225   6.259   7.246
  431W        W 1428   0.928   1.731   3.962
  432W        W 1429   7.648   1.659   2.228
  433W        W 1430   2.513   1.885   7.289
  434W        W 1431   2.496   1.095   3.080
  435W        W 1432   0.595   3.849   4.288
  436W        W 1433   6.042   1.134   3.217
  437W        W 1434   4.477   3.244   7.145
  438W        W 1435   5.180   3.234   1.965
  439W        W 1436   3.374   6.613   3.132
  440W        W 1437   7.344   7.811   6.781
  441W        W 1438   0.731   3.864   1.693
  442W        W 1439   7.213   1.344   6.940
  443W        W 1440   0.737   2.109   1.248
  444W        W 1441   6.718   4.841   6.852
  445W        W 1442   4.272   7.015   3.315
  446W        W 1443   1.687   4.864   5.992
  447W        W 1444   5.991   0.370   6.393
  448W        W 1445   5.310   2.779   5.362
  449W        W 1446   2.167   5.026   7.731
  450W        W 1447   6.254   6.507   4.976
  451W        W 1448   7.669   4.637   0.673
  452W        W 1449   6.150   4.390   4.087
  453W        W 1450   4.368   6.712   2.046
  454W        W 1451   4.959   3.917   5.607
  455W        W 1452   0.909   0.784   7.552
  456W        W 1453   1.139   0.905   1.385
  457W        W 1454   3.147   0.050   4.128
  458W        W 1455   1.467   5.549   4.738
  459W        W 1456   2.707   0.257   1.550
  460W        W 1457   7.276   2.491   0.280
  461W        W 1458   1.401   0.343   7.024
  462W        W 1459   5.050   7.122   0.900
  463W        W 1460   3.212   4.240   6.956
  464W        W 1461   6.014   3.418   5.597
  465W        W 1462   5.090   3.496   3.901
  466W        W 1463   2.204   1.607   1.031
  467W        W 1464   5.933   7.313   7.178
  468W        W 1465   0.423   3.184   2.254
  469W        W 1466   5.206   1.158   3.101
  470W        W 1467   7.671   3.454   3.286
  471W        W 1468   0.360   0.848   7.618
  472W        W 1469   1.492   2.380   7.774
  473W        W 1470   5.842   1.869   0.596
  474W        W 1471   6.665   6.398   5.403
  475W        W 1472   6.904   5.757   2.450
  476W        W 1473   0.487   6.888   0.434
  477W        W 1474   3.069   3.815   3.953
  478W        W 1475   2.757   4.564   4.506
  479W        W 1476   0.201   7.539   6.349
  480W        W 1477   1.409   7.471   2.213
  481W        W 1478   1.523   3.008   5.442
  482W        W 1479   4.673   2.041   7.892
  483W        W 1480   2.427   3.180   2.033
  484W        W 1481   6.265   7.347   0.304
  485W        W 1482   7.092   2.642   5.770
  486W        W 1483   2.646   2.891   3.764
  487W        W 1484   6.769   2.803   5.426
  488W        W 1485   1.299   3.182   0.545
  489W        W 1486   1.273   1.200   2.197
  490W        W 1487   7.431   1.580   4.839
  491W        W 1488   0.548   4.539   4.546
  492W        W 1489   0.391   3.199   3.101
  493W        W 1490   4.249   7.158   6.207
  494W        W 1491   4.071   4.230   5.690
  495W        W 1492   3.950   2.589   7.550
  496W        W 1493   7.042   2.932   0.499
  497W        W 1494   1.247   5.733   2.433
  498W        W 1495   4.685   3.375   1.712
  499W        W 1496   2.995   7.596   5.450
  500W        W 1497   4.314   4.547   4.889
  501W        W 1498   6.508   7.541   1.735
  502W        W 1499   4.688   3.956   2.447
  503W        W 1500   6.934   7.511   5.920
  504W        W 1501   5.246   2.577   1.201
  505W        W 1502   2.135   5.526   1.287
  506W        W 1503   7.077   6.869   0.119
  507W        W 1504   6.566   3.867   3.310
  508W        W 1505   1.810   1.959   3.307
  509W        W 1506   2.555   5.326   7.457
  510W        W 1507   5.703   3.147   5.174
  511W        W 1508   6.534   2.133   3.736
  512W        W 1509   2.697   7.460   4.056
  513W        W 1510   4.633   0.642   4.197
  514W        W 1511   3.496   3.235   4.749
  515W        W 1512   5.067   6.904   3.109
  516W        W 1513   0.100   5.858   0.041
  517W        W 1514   3.346   3.366   2.062
  518W        W 1515   1.813   1.775   4.665
  519W        W 1516   1.215   4.687   0.844
  520W        W 1517   3.028   7.407   0.527
  521W        W 1518   7.582   0.005   3.042
  522W        W 1519   0.201   3.645   6.965
  523W        W 1520   0.830   1.719   7.354
  524W        W 1521   5.349   4.628   4.057
  525W        W 1522   4.353   3.959   0.011
  526W        W 1523   4.966   2.867   6.984
  527W        W 1524   1.262   3.033   5.054
  528W        W 1525   6.613   7.421   6.380
  529W        W 1526   4.620   3.907   0.719
  530W        W 1527   4.987   7.461   7.894
  531W        W 1528   7.222   7.579   7.508
  532W        W 1529   7.772   0.232   5.642
  533W        W 1530   5.982   5.966   5.055
  534W        W 1531   6.420   7.919   0.320
  535W        W 1532   5.940   6.054   0.239
  536W        W 1533   4.342   2.977   1.604
  537W        W 1534   3.020   1.291   5.221
  538W        W 1535   4.653   2.617   1.232
  539W        W 1536   7.318   0.141   6.262
  540W        W 1537   6.209   0.931   1.592
  541W        W 1538   0.889   5.918   0.791
  542W        W 1539   6.479   5.093   4.224
  543W        W 1540   4.184   0.803   1.556
  544W        W 1541   5.660   4.132   7.602
  545W        W 1542   1.283   4.695   6.268
  546W        W 1543   4.110   1.383   5.752
  547W        W 1544   4.118   4.271   1.307
  548W        W 1545   6.839   5.566   1.290
  549W        W 1546   4.773   7.483   0.258
  550W        W 1547   1.712   6.500   6.804
  551W        W 1548   7.238   4.283   6.320
  552W        W 1549   7.635   5.228   2.470
  553W        W 1550   0.324   3.610   2.813
  554W        W 1551   0.224   3.742   0.793
  555W        W 1552   1.908   6.078   7.028
  556W        W 1553   0.717   3.486   0.585
  557W        W 1554   5.502   3.440   1.015
  558W        W 1555   0.033   4.036   6.689
  559W        W 1556   3.401   7.094   6.261
  560W        W 1557   7.723   6.265   7.387
  561W        W 1558   6.441   5.309   7.423
  562W        W 1559   7.520   2.191   7.253
  563W        W 1560   4.744   5.516   5.387
  564W        W 1561   0.035   2.034   2.958
  565W        W 1562   3.375   4.107   0.903
  566W        W 1563   3.017   5.364   3.640
  567W        W 1564   0.318   4.358   1.668
  568W        W 1565   0.425   4.345   5.912
  569W        W 1566   1.437   0.553   6.083
  570W        W 1567   2.542   1.777   2.588
  571W        W 1568   7.378   5.867   1.885
  572W        W 1569   5.808   0.551   0.559
  573W        W 1570   5.204   3.543   1.426
  574W        W 1571   2.582   7.435   4.585
  575W        W 1572   2.080   0.539   4.640
  576W        W 1573   4.071   2.436   0.616
  577W        W 1574   5.158   5.228   6.585
  578W        W 1575   4.606   5.967   5.119
  579W        W 1576   2.536   0.558   5.816
  580W        W 1577   7.413   4.681   5.948
  581W        W 1578   7.991   5.633   6.639
  582W        W 1579   0.286   5.890   4.577
  583W        W 1580   2.289   0.991   6.095
  584W        W 1581   2.265   7.063   5.248
  585W        W 1582   2.160   2.927   2.892
  586W        W 1583   4.399   0.978   5.528
  587W        W 1584   4.993   5.267   2.821
  588W        W 1585   7.259   2.940   1.332
  589W        W 1586   2.877   6.251   5.587
  590W        W 1587   1.227   1.237   0.955
  591W        W 1588   1.792   4.490   5.249
  592W        W 1589   4.232   3.931   7.043
  593W        W 1590   1.236   7.565   4.667
  594W        W 1591   3.495   4.730   6.042
  595W        W 1592   5.740   1.246   1.262
  596W        W 1593   3.007   1.081   6.393
  597W        W 1594   6.796   4.395   4.888
  598W        W 1595   5.221   1.061   6.166
  599W        W 1596   4.930   6.797   1.256
  600W        W 1597   2.289   3.106   4.016
  601W        W 1598   1.186   5.085   5.902
  602W        W 1599   1.348   2.195   4.747
  603W        W 1600   7.176   0.904   7.736
  604W        W 1601   2.805   4.665   6.760
  605W        W 1602   6.460   0.201   5.175
  606W        W 1603   4.819   3.146   4.692
  607W        W 1604   7.781   7.076   4.202
  608W        W 1605   5.101   1.691   1.163
  609W        W 1606   6.234   3.081   6.213
  610W        W 1607   6.922   4.502   4.361
  611W        W 1608   2.383   7.524   6.951
  612W        W 1609   2.800   6.112   3.806
  613W        W 1610   5.289   4.868   1.395
  614W        W 1611   0.424   7.201   6.711
  615W        W 1612   0.152   2.032   6.016
  616W        W 1613   7.587   4.028   2.743
  617W        W 1614   2.291   0.858   7.014
  618W        W 1615   5.202   0.039   1.816
  619W        W 1616   3.216   2.553   6.908
  620W        W 1617   4.125   0.137   4.980
  621W        W 1618   0.603   5.519   7.381
  622W        W 1619   5.652   1.070   7.518
  623W        W 1620   4.900   5.178   4.854
  624W        W 1621   1.500   7.354   5.865
  625W        W 1622   3.738   3.949   6.893
  626W        W 1623   6.105   3.523   5.085
  627W        W 1624   1.396   5.128   1.171
  628W        W 1625   5.814   6.463   4.070
  629W        W 1626   6.426   6.802   4.629
  630W        W 1627   1.918   1.408   3.199
  631W        W 1628   7.084   0.246   7.757
  632W        W 1629   7.535   3.451   6.572
  633W        W 1630   4.761   4.458   7.624
  634W        W 1631   2.863   3.651   4.411
  635W        W 1632   3.124   4.803   5.673
  636W        W 1633   0.942   3.312   3.162
  637W        W 1634   0.700   2.625   7.709
  638W        W 1635   7.696   4.389   5.619
  639W        W 1636   2.483   6.525   4.522
  640W        W 1637   5.663   7.312   0.318
  641W        W 1638   6.666   1.431   7.086
  642W        W 1639   4.791   5.033   4.367
  643W        W 1640   7.727   7.693   5.756
  644W        W 1641   6.520   5.539   5.383
  645W        W 1642   3.053   0.148   6.574
  646W        W 1643   3.165   0.879   0.806
  647W        W 1644   2.648   2.429   4.900
  648W        W 1645   4.099   7.265   7.501
  649W        W 1646   7.142   7.191   3.641
  650W        W 1647   5.414   4.967   5.019
  651W        W 1648   5.643   4.973   1.712
  652W        W 1649   3.923   5.851   2.934
  653W        W 1650   1.047   0.730   0.842
  654W        W 1651   3.634   0.799   1.537
  655W        W 1652   3.739   6.172   4.685
  656W        W 1653   2.692   1.409   4.344
  657W        W 1654   7.646   0.601   5.030
  658W        W 1655   0.747   7.548   4.601
  659W        W 1656   7.994   6.359   3.127
  660W        W 1657   4.654   7.471   0.948
  661W        W 1658   3.264   6.732   4.230
  662W        W 1659   5.444   5.721   6.519
  663W        W 1660   1.008   3.978   2.077
  664W        W 1661   0.677   1.078   1.695
  665W        W 1662   7.017   4.256   1.494
  666W        W 1663   6.891   6.336   5.858
  667W        W 1664   1.614   5.297   3.790
  668W        W 1665   1.659   3.056   1.384
  669W        W 1666   1.016   3.415   6.237
  670W        W 1667   4.676   2.608   2.394
  671W        W 1668   5.945   7.734   0.261
  672W        W 1669   1.525   2.450   0.197
  673W        W 1670   0.843   5.491   6.891
  674W        W 1671   7.895   6.664   1.385
  675W        W 1672   4.583   7.146   2.891
  676W        W 1673   1.597   5.021   4.554
  677W        W 1674   4.845   3.903   4.494
  678W        W 1675   3.044   4.869   6.206
  679W        W 1676   1.797   6.203   3.493
  680W        W 1677   7.135   0.546   6.432
  681W        W 1678   2.900   5.411   5.076
  682W        W 1679   3.117   0.315   2.395
  683W        W 1680   6.485   0.695   2.439
  684W        W 1681   2.286   5.863   6.341
  685W        W 1682   3.708   0.846   7.169
  686W        W 1683   5.315   1.012   2.156
  687W        W 1684   1.212   6.050   4.135
  688W        W 1685   5.465   5.844   3.535
  689W        W 1686   3.570   2.692   4.939
  690W        W 1687   3.302   5.552   5.361
  691W        W 1688   3.398   6.302   2.719
  692W        W 1689   5.560   3.464   4.792
  693W        W 1690   3.114   6.425   0.093
  694W        W 1691   4.183   0.432   5.722
  695W        W 1692   3.636   4.251   6.241
  696W        W 1693   4.758   3.178   2.262
  697W        W 1694   1.587   1.163   3.531
  698W        W 1695   7.052   4.064   4.338
  699W        W 1696   6.124   5.431   3.999
  700W        W 1697   6.545   0.630   1.750
  701W        W 1698   4.720   2.586   0.151
  702W        W 1699   3.666   1.042   2.376
  703W        W 1700   4.892   0.678   3.118
  704W        W 1701   5.543   6.725   3.066
  705W        W 1702   4.428   4.893   7.861
  706W        W 1703   0.894   5.629   7.825
  707W        W 1704   1.349   4.504   5.750
  708W        W 1705   7.084   3.028   2.700
  709W        W 1706   5.021   6.502   4.099
  710W        W 1707   7.200   6.199   0.631
  711W        W 1708   7.508   3.429   0.331
  712W        W 1709   7.863   0.510   3.663
  713W        W 1710   6.192   5.055   6.704
  714W        W 1711   0.096   5.650   2.097
  715W        W 1712   5.053   5.760   2.776
  716W        W 1713   4.905   1.783   2.274
  717W        W 1714   0.547   1.496   2.918
  718W        W 1715   0.045   5.409   0.230
  719W        W 1716   6.209   6.210   5.412
  720W        W 1717   0.915   3.151   0.918
  721W        W 1718   1.212   3.620   1.771
  722W        W 1719   1.071   5.493   0.947
  723W        W 1720   6.261   0.329   0.226
  724W        W 1721   4.346   7.524   2.685
  725W        W 1722   2.680   2.372   6.812
  726W        W 1723   5.840   5.692   4.668
  727W        W 1724   2.766   1.303   5.679
  728W        W 1725   6.359   6.594   1.848
  729W        W 1726   5.430   2.222   2.987
  730W        W 1727   4.265   1.979   4.152
  731W        W 1728   0.352   0.725   0.326
  732W        W 1729   0.531   2.365   5.632
  733W        W 1730   7.621   3.237   5.727
  734W        W 1731   0.649   2.401   2.353
  735W        W 1732   5.750   2.488   7.144
  736W        W 1733   1.721   3.936   3.585
  737W        W 1734   3.599   7.066   1.749
  738W        W 1735   6.342   3.027   5.733
  739W        W 1736   4.090   4.384   7.175
  740W        W 1737   5.545   4.090   2.682
  741W        W 1738   2.264   5.237   2.081
  742W        W 1739   5.913   7.713   4.093
  743W        W 1740   3.932   3.889   7.439
  744W        W 1741   5.110   0.302   7.294
  745W        W 1742   2.502   6.522   3.966
  746W        W 1743   4.040   7.897   1.758
  747W        W 1744   5.567   7.716   0.647
  748W        W 1745   4.869   1.991   7.449
  749W        W 1746   3.390   3.753   2.940
  750W        W 1747   0.812   1.401   2.087
  751W        W 1748   1.421   1.412   3.028
  752W        W 1749   7.420   1.326   1.427
  753W        W 1750   2.250   3.925   2.825
  754W        W 1751   2.017   4.018   0.446
  755W        W 1752   7.651   2.160   5.691
  756W        W 1753   7.147   2.379   4.286
  757W        W 1754   6.438   3.904   5.094
  758W        W 1755   2.562   1.742   0.562
  759W        W 1756   7.000   6.917   1.133
  760W        W 1757   3.171   7.858   5.933
  761W        W 1758   5.918   1.346   4.481
  762W        W 1759   7.354   5.835   6.709
  763W        W 1760   1.022   7.298   5.068
  764W        W 1761   1.637   3.652   1.536
  765W        W 1762   4.700   5.783   3.570
  766W        W 1763   4.056   4.719   5.852
  767W        W 1764   5.083   0.796   4.373
  768W        W 1765   3.569   7.764   1.852
  769W        W 1766   1.888   2.036   1.124
  770W        W 1767   3.141   5.918   4.320
  771W        W 1768   1.164   5.531   1.461
  772W        W 1769   5.900   4.482   7.822
  773W        W 1770   2.393   6.021   7.142
  774W        W 1771   3.662   1.541   5.473
  775W        W 1772   3.922   4.919   2.477
  776W        W 1773   3.203   4.382   3.852
  777W        W 1774   3.175   1.203   2.536
  778W        W 1775   4.765   0.817   1.985
  779W        W 1776   6.678   2.203   6.575
  780W        W 1777   4.582   7.078   7.520
  781W        W 1778   7.080   0.317   2.566
  782W        W 1779   7.047   0.066   2.996
  783W        W 1780   1.420   6.824   7.049
  784W        W 1781   2.137   6.064   3.184
  785W        W 1782   5.599   1.795   1.442
  786W        W 1783   1.079   1.219   7.341
  787W        W 1784   6.324   7.800   5.275
  788W        W 1785   3.814   6.348   3.067
  789W        W 1786   0.638   6.022   7.278
  790W        W 1787   3.896   0.582   2.569
  791W        W 1788   7.838   7.938   6.760
  792W        W 1789   5.724   3.797   7.221
  793W        W 1790   4.748   0.991   5.906
  794W        W 1791   1.694   6.996   6.608
  795W        W 1792   6.550   6.219   6.919
  796W        W 1793   4.141   2.484   1.491
  797W        W 1794   4.366   4.879   1.892
  798W        W 1795   3.890   4.464   5.227
  799W        W 1796   7.712   6.556   5.491
  800W        W 1797   3.641   2.035   4.803
  801W        W 1798   5.137   0.074   6.827
  802W        W 1799   7.127   1.857   4.383
  803W        W 1800   6.194   7.259   6.684
  804W        W 1801   5.710   6.609   4.849
  805W        W 1802   7.891   6.294   0.069
  806W        W 1803   1.462   2.385   3.446
  807W        W 1804   6.538   2.591   5.035
  808W        W 1805   6.993   6.038   1.494
  809W        W 1806   6.291   2.003   5.622
  810W        W 1807   6.843   6.613   4.968
  811W        W 1808   0.372   5.154   0.568
  812W        W 1809   0.192   7.138   1.280
  813W        W 1810   3.695   6.274   7.428
  814W        W 1811   1.536   1.917   5.082
  815W        W 1812   7.188   6.624   5.549
  816W        W 1813   3.745   5.473   2.203
  817W        W 1814   2.387   1.610   3.010
  818W        W 1815   2.750   7.132   5.512
  819W        W 1816   5.807   3.849   2.025
  820W        W 1817   4.042   6.809   2.948
  821W        W 1818   1.396   7.287   3.533
  822W        W 1819   1.489   6.440   3.203
  823W        W 1820   5.793   4.260   3.313
  824W        W 1821   3.303   7.064   4.739
  825W        W 1822   5.584   4.019   1.010
  826W        W 1823   7.298   7.951   2.552
  827W        W 1824   7.551   2.447   6.509
  828W        W 1825   4.137   1.128   2.129
  829W        W 1826   3.710   2.616   7.064
  830W        W 1827   2.771   3.120   1.212
  831W        W 1828   7.193   3.845   6.617
  832W        W 1829   3.496   1.347   0.700
  833W        W 1830   4.900   1.727   0.701
  834W        W 1831   5.959   1.680   4.854
  835W        W 1832   4.010   1.473   0.865
  836W        W 1833   3.907   1.399   6.185
  837W        W 1834   2.220   5.611   5.922
  838W        W 1835   5.565   4.482   1.544
  839W        W 1836   0.017   2.878   5.815
  840W        W 1837   0.603   3.088   3.538
  841W        W 1838   0.824   2.973   4.029
  842W        W 1839   4.797   7.291   3.383
  843W        W 1840   2.473   6.320   6.284
  844W        W 1841   2.664   7.910   6.859
  845W        W 1842   7.209   0.112   5.633
  846W        W 1843   5.711   6.140   6.348
  847W        W 1844   1.766   4.509   2.203
  848W        W 1845   1.742   2.104   3.805
  849W        W 1846   3.532   5.255   7.353
  850W        W 1847   6.226   3.159   6.787
  851W        W 1848   6.840   2.037   1.491
  852W        W 1849   4.746   7.648   6.686
  853W        W 1850   6.275   7.544   1.196
  854W        W 1851   1.311   2.704   1.901
  855W        W 1852   5.397   2.054   0.944
  856W        W 1853   6.285   2.643   0.354
  857W        W 1854   3.694   0.903   0.452
  858W        W 1855   0.295   2.665   3.303
  859W        W 1856   5.081   3.448   5.746
  860W        W 1857   7.060   2.886   2.249
  861W        W 1858   7.262   3.375   4.721
  862W        W 1859   1.218   0.494   3.184
  863W        W 1860   0.889   0.470   6.247
  864W        W 1861   1.938   1.209   7.165
  865W        W 1862   2.027   1.006   3.859
  866W        W 1863   3.078   3.706   0.687
  867W        W 1864   5.653   2.313   7.951
  868W        W 1865   0.735   2.826   3.144
  869W        W 1866   1.304   4.926   7.471
  870W        W 1867   4.825   4.081   6.240
  871W        W 1868   5.556   0.551   6.714
  872W        W 1869   6.728   3.740   2.280
  873W        W 1870   5.114   4.551   0.243
  874W        W 1871   3.822   4.518   1.635
  875W        W 1872   4.001   1.172   5.234
  876W        W 1873   0.496   5.291   6.603
  877W        W 1874   3.944   7.955   0.814
  878W        W 1875   0.546   3.519   6.411
  879W        W 1876   0.703   1.015   5.857
  880W        W 1877   3.681   1.747   6.533
  881W        W 1878   5.293   4.796   6.354
  882W        W 1879   0.915   3.159   7.669
  883W        W 1880   1.332   0.205   1.773
  884W        W 1881   5.819   7.572   7.811
  885W        W 1882   4.667   0.544   5.546
  886W        W 1883   5.235   5.420   5.229
  887W        W 1884   3.351   4.753   2.063
  888W        W 1885   5.441   2.297   0.320
  889W        W 1886   4.362   1.525   5.319
  890W        W 1887   6.472   4.314   2.496
  891W        W 1888   3.087   7.268   4.331
  892W        W 1889   2.723   7.498   7.370
  893W        W 1890   1.157   0.291   0.019
  894W        W 1891   0.068   3.400   6.557
  895W        W 1892   2.906   7.091   6.429
  896W        W 1893   3.140   5.477   4.628
  897W        W 1894   6.893   6.693   6.422
  898W        W 1895   4.391   2.575   3.360
  899W        W 1896   2.906   6.379   4.289
  900W        W 1897   2.871   6.934   7.424
  901W        W 1898   0.478   0.095   5.483
  902W        W 1899   3.712   2.699   1.305
  903W        W 1900   4.092   2.239   3.547
  904W        W 1901   1.500   0.397   0.922
  905W        W 1902   6.536   7.195   0.908
  906W        W 1903   5.036   3.241   1.043
  907W        W 1904   7.846   6.979   6.494
  908W        W 1905   4.566   3.157   5.852
  909W        W 1906   2.943   6.998   3.799
  910W        W 1907   6.608   1.653   0.232
  911W        W 1908   1.326   5.599   6.604
  912W        W 1909   0.515   7.604   2.725
  913W        W 1910   2.104   3.453   2.841
  914W        W 1911   6.428   6.822   5.303
  915W        W 1912   5.360   4.774   6.942
  916W        W 1913   4.563   5.871   1.652
  917W        W 1914   0.526   5.648   5.930
  918W        W 1915   6.709   2.108   2.927
  919W        W 1916   1.515   2.327   6.240
  920W        W 1917   6.941   6.530   3.030
  921W        W 1918   5.805   4.177   6.037
  922W        W 1919   7.004   1.155   1.234
  923W        W 1920   0.388   3.811   5.758
  924W        W 1921   4.005   3.468   7.190
  925W        W 1922   6.670   0.107   7.514
  926W        W 1923   5.202   7.213   4.833
  927W        W 1924   0.297   4.506   5.010
  928W        W 1925   0.271   4.677   5.534
  929W        W 1926   4.491   2.303   7.446
  930W        W 1927   2.726   5.544   0.325
  931W        W 1928   3.337   2.878   3.083
  932W        W 1929   3.582   0.331   2.203
  933W        W 1930   6.898   1.536   4.724
  934W        W 1931   2.483   1.644   3.901
  935W        W 1932   5.851   5.987   3.251
  936W        W 1933   4.864   5.840   1.046
  937W        W 1934   0.518   3.301   1.767
  938W        W 1935   6.644   6.410   3.846
  939W        W 1936   7.590   5.210   7.218
  940W        W 1937   3.918   3.500   2.945
  941W        W 1938   1.164   0.380   1.302
  942W        W 1939   7.745   7.456   3.841
  943W        W 1940   1.428   5.400   5.470
  944W        W 1941   7.012   3.763   1.423
  945W        W 1942   2.536   2.445   3.485
  946W        W 1943   1.085   2.146   3.233
  947W        W 1944   2.839   4.805   5.160
  948W        W 1945   0.454   3.077   0.898
  949W        W 1946   3.757   0.708   5.103
  950W        W 1947   5.179   7.568   1.086
  951W        W 1948   7.319   5.022   0.938
  952W        W 1949   6.514   6.061   2.216
  953W        W 1950   3.070   4.476   4.871
  954W        W 1951   3.013   2.894   6.527
  955W        W 1952   0.221   2.667   1.105
  956W        W 1953   5.527   2.920   0.879
  957W        W 1954   7.000   1.626   3.893
  958W        W 1955   0.082   5.279   5.631
  959W        W 1956   6.018   0.832   1.040
  960W        W 1957   3.547   2.545   2.758
  961W        W 1958   1.077   0.354   4.798
  962W        W 1959   5.689   2.920   2.350
  963W        W 1960   6.357   6.420   4.224
  964W        W 1961   2.504   2.739   0.926
  965W        W 1962   7.246   1.188   5.668
  966W        W 1963   5.555   0.154   7.125
  967W        W 1964   0.784   5.443   0.582
  968W        W 1965   4.456   7.403   5.796
  969W        W 1966   3.083   2.675   4.172
  970W        W 1967   4.675   2.752   1.870
  971W        W 1968   2.269   6.175   1.319
  972W        W 1969   0.625   5.859   1.817
  973W        W 1970   0.003   4.041   0.383
  974W        W 1971   2.220   4.757   6.135
  975W        W 1972   6.730   3.597   1.028
  976W        W 1973   7.406   6.131   6.248
  977W        W 1974   4.236   3.011   7.500
  978W        W 1975   1.180   6.272   4.569
  979W        W 1976   3.316   5.053   5.264
  980W        W 1977   7.113   1.939   1.921
  981W        W 1978   7.415   4.354   2.392
  982W        W 1979   2.056   1.011   2.319
  983W        W 1980   3.062   5.826   2.898
  984W        W 1981   6.567   3.433   6.491
  985W        W 1982   4.902   7.280   1.376
  986W        W 1983   4.602   6.999   0.081
  987W        W 1984   4.303   6.390   2.982
  988W        W 1985   6.280   6.292   7.885
  989W        W 1986   0.941   6.014   0.318
  990W        W 1987   6.389   7.684   2.789
  991W        W 1988   0.843   4.714   3.298
  992W        W 1989   1.900   0.251   4.031
  993W        W 1990   5.108   6.126   4.576
  994W        W 1991   5.444   2.473   2.541
  995W        W 1992   5.227   4.048   0.225
  996W        W 1993   2.799   3.654   3.432
  997W        W 1994   3.530   7.966   7.123
  998W        W 1995   6.268   4.709   2.901
  999W        W 1996   5.641   5.643   3.982
 1000W        W 1997   7.776   5.874   7.021
 1001W        W 1998   4.843   4.339   0.739
 1002W        W 1999   6.335   5.614   1.370
 1003W        W 2000   0.195   1.231   0.158
 1004W        W 2001   0.354   7.844   6.757
 1005W        W 2002   7.146   0.763   5.058
 1006W        W 2003   7.476   2.066   4.116
 1007W        W 2004   3.928   6.100   6.005
 1008W        W 2005   2.580   4.977   6.336
 1009W        W 2006   4.949   4.583   3.597
 1010W        W 2007   3.142   6.756   5.561
 1011W        W 2008   1.693   3.645   5.545
 1012W        W 2009   1.664   3.058   4.620
 1013W        W 2010   2.044   4.616   6.907
 1014W        W 2011   4.830   4.724   1.087
 1015W        W 2012   3.505   2.500   0.225
 1016W        W 2013   7.628   3.244   1.543
 1017W        W 2014   5.518   2.090   3.465
 1018W        W 2015   6.436   0.366   3.845
 1019W        W 2016   6.981   4.385   5.350
 1020W        W 2017   1.697   7.012   2.333
 1021W        W 2018   2.470   5.045   6.798
 1022W        W 2019   2.699   4.150   4.825
 1023W        W 2020   0.296   1.363   4.181
 1024W        W 2021   0.897   3.350   1.464
 1025W        W 2022   3.471   5.128   2.408
 1026W        W 2023   1.622   3.374   2.600
 1027W        W 2024   4.354   7.543   3.313
 1028W        W 2025   3.507   3.142   5.294
 1029W        W 2026   5.241   3.473   4.395
 1030W        W 2027   4.364   0.457   7.512
 1031W        W 2028   0.452   4.205   7.641
 1032W        W 2029   5.168   0.548   2.339
 1033W        W 2030   4.476   0.410   1.428
 1034W        W 2031   5.465   5.845   0.242
 1035W        W 2032   3.378   4.676   0.238
 1036W        W 2033   3.341   5.214   1.690
 1037W        W 2034   2.826   6.337   7.059
 1038W        W 2035   0.909   2.548   5.958
 1039W        W 2036   2.804   7.722   6.385
 1040W        W 2037   0.775   7.207   6.385
 1041W        W 2038   1.403   1.589   1.921
 1042W        W 2039   1.342   1.666   2.598
 1043W        W 2040   2.191   2.901   7.545
 1044W        W 2041   6.060   1.427   2.206
 1045W        W 2042   5.338   1.827   0.456
 1046W        W 2043   2.874   4.892   1.459
 1047W        W 2044   6.239   7.300   5.351
 1048W        W 2045   4.969   4.629   2.548
 1049W        W 2046   0.777   3.832   3.508
 1050W        W 2047   6.085   1.512   6.300
 1051W        W 2048   7.465   2.577   3.265
 1052W        W 2049   6.087   1.336   3.709
 1053W        W 2050   1.638   2.544   6.727
 1054W        W 2051   0.385   4.034   4.797
 1055W        W 2052   6.067   3.769   3.175
 1056W        W 2053   0.482   1.379   5.674
 1057W        W 2054   5.309   6.489   1.442
 1058W        W 2055   0.524   3.550   3.870
 1059W        W 2056   0.786   3.743   2.892
 1060W        W 2057   4.999   6.683   5.574
 1061W        W 2058   1.681   4.256   4.748
 1062W        W 2059   5.440   4.797   3.544
 1063W        W 2060   1.130   4.601   0.022
 1064W        W 2061   0.559   1.736   5.308
 1065W        W 2062   1.912   7.623   0.138
 1066W        W 2063   6.608   3.807   1.743
 1067W        W 2064   1.248   6.889   3.215
 1068W        W 2065   0.386   0.180   0.625
 1069W        W 2066   4.866   2.164   0.978
 1070W        W 2067   7.818   0.030   0.051
 1071W        W 2068   1.154   2.878   1.361
 1072W        W 2069   0.217   5.175   1.127
 1073W        W 2070   2.460   5.193   5.213
 1074W        W 2071   1.353   3.223   6.577
 1075W        W 2072   2.632   3.609   0.299
 1076W        W 2073   6.247   1.885   2.814
 1077W        W 2074   0.016   0.103   4.674
 1078W        W 2075   0.791   3.735   5.499
 1079W        W 2076   1.278   1.701   4.585
 1080W        W 2077   6.061   1.630   1.049
 1081W        W 2078   7.505   0.577   6.032
 1082W        W 2079   2.201   1.277   5.682
 1083W        W 2080   0.007   7.473   7.485
 1084W        W 2081   0.304   6.595   0.094
 1085W        W 2082   6.980   3.724   5.751
 1086W        W 2083   7.267   0.286   3.432
 1087W        W 2084   0.667   1.209   3.347
 1088W        W 2085   6.712   4.690   7.639
 1089W        W 2086   1.447   1.939   2.961
 1090W        W 2087   3.201   5.503   0.365
 1091W        W 2088   5.634   6.317   5.254
 1092W        W 2089   0.985   5.964   3.333
 1093W        W 2090   6.265   4.431   5.015
 1094W        W 2091   6.228   7.698   3.540
 1095W        W 2092   3.817   0.298   5.391
 1096W        W 2093   2.476   0.913   7.524
 1097W        W 2094   6.121   3.427   7.186
 1098W        W 2095   4.966   3.303   3.037
 1099W        W 2096   7.640   7.552   7.172
 1100W        W 2097   0.618   6.358   1.648
 1101W        W 2098   5.950   2.835   4.406
 1102W        W 2099   3.496   0.941   7.629
 1103W        W 2100   3.541   0.154   2.723
 1104W        W 2101   3.276   2.798   1.962
 1105W        W 2102   3.938   4.747   0.571
 1106W        W 2103   3.676   6.414   3.541
 1107W        W 2104   0.629   1.559   1.554
 1108W        W 2105   5.639   1.258   2.512
 1109W        W 2106   6.580   2.519   7.484
 1110W        W 2107   3.073   6.453   2.278
 1111W        W 2108   1.672   7.002   0.107
 1112W        W 2109   4.136   5.789   0.177
 1113W        W 2110   6.582   2.142   0.206
 1114W        W 2111   3.323   6.757   7.436
 1115W        W 2112   7.066   7.436   4.566
 1116W        W 2113   7.386   2.328   6.003
 1117W        W 2114   4.897   3.388   6.199
 1118W        W 2115   3.152   1.405   6.034
 1119W        W 2116   4.086   7.244   4.600
 1120W        W 2117   4.753   6.501   4.682
 1121W        W 2118   7.787   1.222   1.973
 1122W        W 2119   6.495   5.484   0.012
 1123W        W 2120   0.973   2.798   0.005
 1124W        W 2121   0.311   2.970   6.510
 1125W        W 2122   3.989   1.950   5.393
 1126W        W 2123   4.207   2.560   7.067
 1127W        W 2124   3.163   6.994   1.347
 1128W        W 2125   3.157   2.765   4.711
 1129W        W 2126   7.860   4.910   5.399
 1130W        W 2127   7.415   4.168   0.704
 1131W        W 2128   3.739   5.514   1.710
 1132W        W 2129   3.727   2.511   2.244
 1133W        W 2130   4.923   1.444   5.399
 1134W        W 2131   2.640   2.948   4.716
 1135W        W 2132   3.330   4.647   6.497
 1136W        W 2133   2.232   2.089   3.938
 1137W        W 2134   7.015   5.663   5.231
 1138W        W 2135   3.494   5.968   3.092
 1139W        W 2136   5.105   5.474   6.177
 1140W        W 2137   7.078   6.166   5.351
 1141W        W 2138   6.122   1.669   0.272
 1142W        W 2139   7.264   2.924   4.477
 1143W        W 2140   4.618   4.853   5.774
 1144W        W 2141   5.446   0.715   3.238
 1145W        W 2142   1.736   7.025   0.934
 1146W        W 2143   4.487   5.108   6.605
 1147W        W 2144   3.494   1.117   5.266
 1148W        W 2145   6.668   2.283   5.422
 1149W        W 2146   7.317   2.931   5.472
 1150W        W 2147   3.832   3.164   3.826
 1151W        W 2148   1.718   5.164   5.019
 1152W        W 2149   5.900   4.294   2.348
 1153W        W 2150   4.167   7.871   5.845
 1154W        W 2151   1.061   2.166   6.440
 1155W        W 2152   3.500   4.993   3.530
 1156W        W 2153   1.456   6.088   6.783
 1157W        W 2154   0.721   5.777   4.064
 1158W        W 2155   2.224   4.029   1.619
 1159W        W 2156   6.821   2.684   4.519
 1160W        W 2157   7.591   1.988   3.057
 1161W        W 2158   0.176   4.104   4.233
 1162W        W 2159   4.662   3.662   5.389
 1163W        W 2160   3.102   2.998   5.602
 1164W        W 2161   2.564   0.491   4.434
 1165W        W 2162   6.150   4.255   5.563
 1166W        W 2163   2.932   6.778   4.683
 1167W        W 2164   0.834   4.074   5.082
 1168W        W 2165   0.487   1.568   6.136
 1169W        W 2166   1.649   2.257   0.717
 1170W        W 2167   3.816   3.033   2.810
 1171W        W 2168   7.100   3.206   5.790
 1172W        W 2169   7.677   5.164   1.867
 1173W        W 2170   0.980   6.467   3.292
 1174W        W 2171   3.674   6.573   5.610
 1175W        W 2172   6.041   4.914   7.650
 1176W        W 2173   1.498   1.382   4.905
 1177W        W 2174   4.399   2.224   1.137
 1178W        W 2175   3.953   0.469   0.623
 1179W        W 2176   7.739   5.277   1.321
 1180W        W 2177   5.560   2.026   4.787
 1181W        W 2178   5.736   6.995   6.161
 1182W        W 2179   4.503   2.133   5.680
 1183W        W 2180   0.339   7.377   1.948
 1184W        W 2181   0.921   6.228   2.177
 1185W        W 2182   1.817   7.156   7.400
 1186W        W 2183   1.042   6.311   7.583
 1187W        W 2184   6.086   5.191   1.483
 1188W        W 2185   4.388   0.124   0.498
 1189W        W 2186   6.891   5.013   7.314
 1190W        W 2187   4.201   3.828   2.580
 1191W        W 2188   6.321   3.066   5.216
 1192W        W 2189   7.212   6.156   2.290
 1193W        W 2190   4.420   4.149   5.220
 1194W        W 2191   6.741   2.980   6.628
 1195W        W 2192   2.993   6.432   0.665
 1196W        W 2193   5.777   5.716   7.713
 1197W        W 2194   1.153   2.669   0.473
 1198W        W 2195   6.464   2.630   6.372
 1199W        W 2196   1.910   7.212   0.497
 1200W        W 2197   2.532   6.671   0.820
 1201W        W 2198   4.139   7.036   1.675
 1202W        W 2199   3.777   5.041   3.983
 1203W        W 2200   6.230   5.550   1.949
 1204W        W 2201   1.666   2.182   2.557
 1205W        W 2202   2.663   7.517   0.802
 1206W        W 2203   3.737   2.660   6.034
 1207W        W 2204   6.420   2.814   4.139
 1208W        W 2205   2.111   3.553   1.486
 1209W        W 2206   0.056   0.427   2.832
 1210W        W 2207   1.117   7.647   6.069
 1211W        W 2208   6.219   5.873   6.812
 1212W        W 2209   2.025   3.961   7.673
 1213W        W 2210   2.661   4.839   5.864
 1214W        W 2211   5.243   3.528   3.408
 1215W        W 2212   3.781   0.367   1.725
 1216W        W 2213   4.343   4.692   5.384
 1217W        W 2214   5.340   6.059   2.541
 1218W        W 2215   4.344   3.901   3.061
 1219W        W 2216   1.347   6.122   2.686
 1220W        W 2217   2.514   3.844   0.708
 1221W        W 2218   6.884   0.578   7.417
 1222W        W 2219   2.943   0.783   2.344
 1223W        W 2220   4.079   6.023   4.351
 1224W        W 2221   4.425   1.954   7.083
 1225W        W 2222   3.688   2.512   3.309
 1226W        W 2223   0.232   6.549   0.771
 1227W        W 2224   0.591   5.175   3.517
 1228W        W 2225   4.496   2.126   2.183
 1229W        W 2226   3.412   2.518   6.484
 1230W        W 2227   1.800   6.958   4.553
 1231W        W 2228   6.351   1.034   2.079
 1232W        W 2229   0.347   5.778   5.098
 1233W        W 2230   4.602   2.448   0.681
 1234W        W 2231   0.176   3.893   3.716
 1235W        W 2232   2.342   0.988   4.635
 1236W        W 2233   6.373   3.359   3.339
 1237W        W 2234   4.649   1.885   4.478
 1238W        W 2235   6.861   1.993   2.479
 1239W        W 2236   3.810   5.574   0.861
 1240W        W 2237   5.481   0.448   7.577
 1241W        W 2238   4.876   1.732   6.991
 1242W        W 2239   0.172   5.419   6.260
 1243W        W 2240   4.993   6.619   1.777
 1244W        W 2241   0.447   3.259   0.140
 1245W        W 2242   6.302   6.449   0.468
 1246W        W 2243   2.023   4.775   4.566
 1247W        W 2244   3.927   1.219   1.525
 1248W        W 2245   5.914   2.344   3.234
 1249W        W 2246   1.936   7.458   1.801
 1250W        W 2247   2.191   5.884   0.891
 1251W        W 2248   3.607   4.399   5.713
 1252W        W 2249   6.651   4.122   5.875
 1253W        W 2250   3.650   1.181   5.817
 1254W        W 2251   6.839   0.103   0.252
 1255W        W 2252   3.229   2.330   2.286
 1256W        W 2253   1.304   2.260   7.257
 1257W        W 2254   0.355   6.905   2.535
 1258W        W 2255   6.057   2.553   2.331
 1259W        W 2256   6.922   4.117   1.982
 1260W        W 2257   1.998   4.181   3.126
 1261W        W 2258   6.060   5.321   2.393
 1262W        W 2259   3.362   7.821   7.687
 1263W        W 2260   3.696   3.430   6.748
 1264W        W 2261   6.034   3.740   0.950
 1265W        W 2262   3.728   0.913   6.345
 1266W        W 2263   3.315   4.899   2.817
 1267W        W 2264   5.217   4.981   5.881
 1268W        W 2265   0.594   0.090   6.022
 1269W        W 2266   5.230   5.305   1.880
 1270W        W 2267   3.032   1.755   2.519
 1271W        W 2268   2.294   6.490   1.731
 1272W        W 2269   5.000   2.260   2.551
 1273W        W 2270   5.754   4.647   7.351
 1274W        W 2271   4.997   6.915   4.465
 1275W        W 2272   0.936   4.322   6.089
 1276W        W 2273   0.833   7.622   6.778
 1277W        W 2274   2.040   0.260   5.024
 1278W        W 2275   3.889   6.723   7.542
 1279W        W 2276   0.862   6.538   0.251
 1280W        W 2277   5.894   7.172   3.957
 1281W        W 2278   1.124   3.015   2.735
 1282W        W 2279   0.300   4.453   6.463
 1283W        W 2280   3.539   4.136   4.956
 1284W        W 2281   1.384   3.156   1.782
 1285W        W 2282   3.578   1.992   7.916
 1286W        W 2283   0.285   5.537   3.614
 1287W        W 2284   0.325   0.641   1.620
 1288W        W 2285   4.457   7.728   5.363
 1289W        W 2286   1.550   0.760   5.615
 1290W        W 2287   0.517   7.623   7.632
 1291W        W 2288   3.356   7.307   0.143
 1292W        W 2289   5.951   7.552   2.617
 1293W        W 2290   4.165   0.077   3.431
 1294W        W 2291   0.764   5.254   4.025
 1295W        W 2292   7.025   4.993   6.147
 1296W        W 2293   2.686   1.844   5.857
 1297W        W 2294   1.355   0.207   2.311
 1298W        W 2295   6.591   2.008   1.994
 1299W        W 2296   2.815   2.610   7.300
 1300W        W 2297   6.963   0.777   3.486
 1301W        W 2298   6.482   3.851   2.716
 1302W        W 2299   5.027   1.383   6.502
 1303W        W 2300   3.985   7.425   0.898
 1304W        W 2301   5.171   7.381   2.880
 1305W        W 2302   0.061   1.487   5.192
 1306W        W 2303   4.114   0.242   2.343
 1307W        W 2304   4.686   0.030   7.445
 1308W        W 2305   2.811   2.637   5.717
 1309W        W 2306   5.301   0.539   0.683
 1310W        W 2307   0.429   5.027   5.229
 1311W        W 2308   1.914   4.956   0.181
 1312W        W 2309   2.414   3.338   3.550
 1313W        W 2310   5.947   0.852   4.478
 1314W        W 2311   7.072   0.464   5.924
 1315W        W 2312   7.451   4.429   0.239
 1316W        W 2313   7.708   1.714   7.231
 1317W        W 2314   1.076   5.248   4.481
 1318W        W 2315   7.738   1.006   6.227
 1319W        W 2316   4.952   5.119   0.358
 1320W        W 2317   3.882   7.454   1.443
 1321W        W 2318   1.508   2.550   1.237
 1322W        W 2319   7.671   4.616   1.903
 1323W        W 2320   4.984   0.197   5.627
 1324W        W 2321   2.006   2.364   7.588
 1325W        W 2322   1.266   3.859   5.422
 1326W        W 2323   4.074   1.852   1.220
 1327W        W 2324   2.694   1.833   6.786
 1328W        W 2325   1.776   3.968   1.882
 1329W        W 2326   1.433   6.839   5.911
 1330W        W 2327   0.937   6.741   7.292
 1331W        W 2328   4.633   1.684   6.480
 1332W        W 2329   3.132   5.419   7.093
 1333W        W 2330   5.136   5.654   2.250
 1334W        W 2331   5.669   0.753   6.255
 1335W        W 2332   2.224   1.472   2.370
 1336W        W 2333   3.789   6.089   2.538
 1337W        W 2334   2.176   6.495   3.556
 1338W        W 2335   3.637   6.393   4.251
 1339W        W 2336   4.946   7.098   3.972
 1340W        W 2337   2.105   6.729   6.482
 1341W        W 2338   6.312   6.895   0.582
 1342W        W 2339   2.082   3.323   4.749
 1343W        W 2340   1.833   4.741   7.357
 1344W        W 2341   3.296   2.774   7.354
 1345W        W 2342   6.362   5.429   3.533
 1346W        W 2343   2.922   5.931   5.199
 1347W        W 2344   1.617   6.714   2.744
 1348W        W 2345   5.128   4.140   2.311
 1349W        W 2346   3.305   5.931   0.083
 1350W        W 2347   4.899   1.989   5.242
 1351W        W 2348   1.693   7.448   6.320
 1352W        W 2349   0.718   1.108   1.178
 1353W        W 2350   5.579   3.161   7.796
 1354W        W 2351   1.112   3.647   0.840
 1355W        W 2352   6.331   0.780   2.972
 1356W        W 2353   4.908   4.412   5.364
 1357W        W 2354   7.587   5.823   0.334
 1358W        W 2355   3.714   2.040   1.465
 1359W        W 2356   7.237   5.494   2.855
 1360W        W 2357   3.796   6.571   6.955
 1361W        W 2358   7.591   2.620   1.561
 1362W        W 2359   1.116   5.761   4.478
 1363W        W 2360   5.633   5.043   6.633
 1364W        W 2361   7.688   3.141   4.289
 1365W        W 2362   3.902   6.224   5.291
 1366W        W 2363   7.548   7.130   7.445
 1367W        W 2364   4.078   6.811   1.228
 1368W        W 2365   7.313   4.817   7.484
 1369W        W 2366   7.388   6.661   7.393
 1370W        W 2367   2.617   2.730   5.294
 1371W        W 2368   0.066   4.405   4.621
 1372W        W 2369   0.529   5.970   3.629
 1373W        W 2370   1.082   5.121   3.580
 1374W        W 2371   6.769   6.635   7.704
 1375W        W 2372   0.164   6.131   6.648
 1376W        W 2373   1.351   0.689   0.338
 1377W        W 2374   0.785   4.239   2.560
 1378W        W 2375   5.822   4.122   0.417
 1379W        W 2376   3.554   3.598   7.563
 1380W        W 2377   0.559   3.992   6.820
 1381W        W 2378   1.324   3.160   2.276
 1382W        W 2379   2.800   4.596   3.966
 1383W        W 2380   1.318   0.987   7.823
 1384W        W 2381   5.336   6.642   0.219
 1385W        W 2382   5.751   4.630   2.029
 1386W        W 2383   2.358   2.337   7.234
 1387W        W 2384   5.462   7.445   5.905
 1388W        W 2385   3.398   6.171   5.759
 1389W        W 2386   5.394   7.332   3.924
 1390W        W 2387   1.932   6.657   7.394
 1391W        W 2388   3.313   3.006   6.108
 1392W        W 2389   7.018   4.293   7.774
 1393W        W 2390   6.251   4.531   2.084
 1394W        W 2391   5.677   0.823   1.485
 1395W        W 2392   4.061   5.772   6.440
 1396W        W 2393   4.046   2.412   5.076
 1397W        W 2394   7.788   3.530   1.096
 1398W        W 2395   0.514   7.411   3.602
 1399W        W 2396   1.272   7.091   6.285
 1400W        W 2397   6.063   2.971   2.700
 1401W        W 2398   6.957   3.770   7.577
 1402W        W 2399   4.540   2.522   6.452
 1403W        W 2400   3.530   0.381   6.928
 1404W        W 2401   7.183   0.281   0.651
 1405W        W 2402   3.573   2.011   3.508
 1406W        W 2403   5.034   1.272   4.762
 1407W        W 2404   1.725   4.283   6.180
 1408W        W 2405   4.089   2.308   3.037
 1409W        W 2406   3.429   0.065   4.510
 1410W        W 2407   6.949   0.172   3.822
 1411W        W 2408   1.038   3.576   7.433
 1412W        W 2409   2.652   5.645   1.216
 1413W        W 2410   6.126   6.337   3.747
 1414W        W 2411   6.615   3.402   5.975
 1415W        W 2412   2.175   1.295   1.874
 1416W        W 2413   1.999   3.934   4.185
 1417W        W 2414   0.093   1.727   6.402
 1418W        W 2415   3.957   7.669   5.072
 1419W        W 2416   1.754   2.981   6.474
 1420W        W 2417   6.848   5.103   3.094
 1421W        W 2418   5.235   1.803   2.756
 1422W        W 2419   3.094   5.313   2.624
 1423W        W 2420   7.130   4.711   6.527
 1424W        W 2421   0.545   6.512   7.548
 1425W        W 2422   0.256   3.930   1.979
 1426W        W 2423   6.040   4.928   4.276
 1427W        W 2424   7.192   2.343   1.678
 1428W        W 2425   0.855   0.673   0.025
 1429W        W 2426   1.077   4.228   4.581
 1430W        W 2427   5.578   0.261   5.410
 1431W        W 2428   2.568   4.130   3.144
 1432W        W 2429   6.233   7.846   2.339
 1433W        W 2430   5.847   3.300   0.705
 1434W        W 2431   1.049   2.854   5.481
 1435W        W 2432   3.349   0.740   2.617
 1436W        W 2433   3.414   0.026   3.754
 1437W        W 2434   5.279   3.992   3.233
 1438W        W 2435   4.636   3.366   0.664
 1439W        W 2436   6.972   4.184   3.358
 1440W        W 2437   1.757   5.758   2.386
 1441W        W 2438   4.545   0.159   7.952
 1442W        W 2439   7.453   7.326   6.059
 1443W        W 2440   7.622   7.395   6.668
 1444W        W 2441   5.881   6.534   6.110
 1445W        W 2442   4.576   5.573   6.286
 1446W        W 2443   4.989   5.452   0.756
 1447W        W 2444   4.415   1.467   7.041
 1448W        W 2445   7.622   2.966   7.407
 1449W        W 2446   0.696   0.010   4.939
 1450W        W 2447   5.107   6.191   5.599
 1451W        W 2448   2.370   4.307   4.069
 1452W        W 2449   3.922   7.605   7.838
 1453W        W 2450   2.765   6.116   0.203
 1454W        W 2451   6.542   2.731   2.102
 1455W        W 2452   5.764   6.814   0.460
 1456W        W 2453   0.607   5.107   5.786
 1457W        W 2454   4.776   6.357   6.772
 1458W        W 2455   5.685   5.510   5.672
 1459W        W 2456   7.032   1.800   7.258
 1460W        W 2457   7.466   0.457   7.432
 1461W        W 2458   5.107   0.975   1.586
 1462W        W 2459   2.976   2.602   0.038
 1463W        W 2460   6.839   7.828   2.078
 1464W        W 2461   5.096   0.342   3.456
 1465W        W 2462   7.414   3.625   6.082
 1466W        W 2463   7.444   6.258   6.994
 1467W        W 2464   0.981   1.980   6.889
 1468W        W 2465   1.832   1.599   6.802
 1469W        W 2466   1.571   0.159   3.661
 1470W        W 2467   2.094   1.166   2.820
 1471W        W 2468   4.369   0.714   2.394
 1472W        W 2469   1.978   2.923   3.614
 1473W        W 2470   2.184   7.558   7.565
 1474W        W 2471   5.632   6.273   0.555
 1475W        W 2472   7.772   5.007   2.868
 1476W        W 2473   0.832   7.449   1.820
 1477W        W 2474   6.322   5.740   3.160
 1478W        W 2475   2.543   3.552   1.080
 1479W        W 2476   1.489   3.457   3.598
 1480W        W 2477   4.464   7.476   4.318
 1481W        W 2478   7.819   2.425   0.823
 1482W        W 2479   1.791   1.401   2.178
 1483W        W 2480   4.021   1.985   0.088
 1484W        W 2481   4.175   5.704   2.109
 1485W        W 2482   0.557   0.767   0.837
 1486W        W 2483   7.396   2.144   2.285
 1487W        W 2484   6.292   1.655   3.345
 1488W        W 2485   0.073   7.311   2.727
 1489W        W 2486   6.108   0.476   2.685
 1490W        W 2487   5.746   0.169   2.180
 1491W        W 2488   0.618   1.067   6.389
 1492W        W 2489   6.417   4.384   7.015
 1493W        W 2490   3.487   2.871   3.580
 1494W        W 2491   3.098   0.309   1.107
 1495W        W 2492   5.510   5.288   6.214
 1496W        W 2493   0.532   6.204   3.129
 1497W        W 2494   2.766   0.317   2.755
 1498W        W 2495   3.502   4.934   4.472
 1499W        W 2496   3.043   0.357   7.017
 1500W        W 2497   3.017   4.769   2.442
 1501W        W 2498   6.702   1.587   1.012
 1502W        W 2499   7.654   7.606   4.340
 1503W        W 2500   2.018   2.511   2.460
 1504W        W 2501   6.307   0.071   1.782
 1505W        W 2502   5.339   2.579   3.728
 1506W        W 2503   2.529   5.449   6.412
 1507W        W 2504   3.428   5.126   6.378
 1508W        W 2505   7.373   3.802   3.851
 1509W        W 2506   3.151   2.240   0.425
 1510W        W 2507   2.520   0.357   6.877
 1511W        W 2508   7.254   2.918   6.584
 1512W        W 2509   2.553   1.263   1.173
 1513W        W 2510   0.615   4.878   2.424
 1514W        W 2511   0.527   1.313   7.570
 1515W        W 2512   7.116   5.438   7.039
 1516W        W 2513   7.485   2.874   6.173
 1517W        W 2514   7.608   5.585   6.318
 1518W        W 2515   0.213   6.878   1.741
 1519W        W 2516   3.436   4.257   2.072
 1520W        W 2517   7.335   1.510   1.843
 1521W        W 2518   0.624   7.690   4.069
 1522W        W 2519   1.189   5.528   3.936
 1523W        W 2520   3.193   1.760   0.687
 1524W        W 2521   3.407   4.553   0.697
 1525W        W 2522   1.650   1.108   1.739
 1526W        W 2523   0.464   4.182   5.391
 1527W        W 2524   5.085   2.746   4.577
 1528W        W 2525   6.311   1.793   6.945
 1529W        W 2526   4.427   7.403   7.943
 1530W        W 2527   7.248   0.490   4.654
 1531W        W 2528   0.710   6.439   5.324
 1532W        W 2529   1.578   0.561   1.513
 1533W        W 2530   0.163   4.900   4.767
 1534W        W 2531   1.390   3.206   7.456
 1535W        W 2532   5.962   7.482   3.126
 1536W        W 2533   1.789   5.157   2.912
 1537W        W 2534   7.661   4.491   5.009
 1538W        W 2535   2.531   1.020   2.076
 1539W        W 2536   6.670   2.988   3.101
 1540W        W 2537   3.016   3.384   3.020
 1541W        W 2538   5.513   6.056   4.835
 1542W        W 2539   1.410   4.579   4.291
 1543W        W 2540   5.463   1.985   5.925
 1544W        W 2541   1.992   2.594   6.242
 1545W        W 2542   0.177   2.228   6.485
 1546W        W 2543   4.955   7.737   2.542
 1547W        W 2544   4.453   4.650   6.316
 1548W        W 2545   3.162   2.630   5.248
 1549W        W 2546   5.435   6.421   5.905
 1550W        W 2547   2.795   3.487   5.861
 1551W        W 2548   5.537   4.004   1.517
 1552W        W 2549   1.803   5.346   5.932
 1553W        W 2550   3.276   1.815   5.063
 1554W        W 2551   1.989   5.266   3.367
 1555W        W 2552   6.397   3.710   5.643
 1556W        W 2553   7.056   0.768   6.982
 1557W        W 2554   5.358   4.297   3.635
 1558W        W 2555   7.061   0.525   2.126
 1559W        W 2556   0.576   4.406   7.164
 1560W        W 2557   1.734   0.332   7.420
 1561W        W 2558   2.660   5.098   7.919
 1562W        W 2559   1.878   5.033   5.482
 1563W        W 2560   5.772   2.401   0.733
 1564W        W 2561   4.438   5.155   5.178
 1565W        W 2562   2.671   1.960   6.346
 1566W        W 2563   1.765   6.611   2.013
 1567W        W 2564   2.391   3.822   4.472
 1568W        W 2565   5.814   5.830   2.740
 1569W        W 2566   0.692   1.024   3.893
 1570W        W 2567   7.767   7.646   2.235
 1571W        W 2568   4.076   4.360   3.129
 1572W        W 2569   5.526   5.410   6.960
 1573W        W 2570   1.990   2.427   0.388
 1574W        W 2571   2.868   5.553   4.098
 1575W        W 2572   0.980   5.608   5.702
 1576W        W 2573   5.858   2.253   5.700
 1577W        W 2574   2.491   4.948   4.695
 1578W        W 2575   2.467   0.548   1.911
 1579W        W 2576   2.000   6.580   3.082
 1580W        W 2577   1.486   6.327   1.615
 1581W        W 2578   3.216   3.324   6.769
 1582W        W 2579   2.016   0.649   2.763
 1583W        W 2580   2.458   2.247   5.464
 1584W        W 2581   2.046   1.167   1.366
 1585W        W 2582   6.257   0.049   7.804
 1586W        W 2583   2.647   5.507   6.980
 1587W        W 2584   5.881   5.785   2.260
 1588W        W 2585   2.657   2.848   4.251
 1589W        W 2586   7.808   6.537   3.566
 1590W        W 2587   3.516   7.607   4.272
 1591W        W 2588   3.424   6.925   3.613
 1592W        W 2589   2.790   1.854   5.222
 1593W        W 2590   0.483   0.297   6.555
 1594W        W 2591   1.912   1.926   2.155
 1595W        W 2592   3.943   1.522   7.879
 1596W        W 2593   4.429   4.711   7.357
 1597W        W 2594   1.396   6.712   7.553
 1598W        W 2595   4.099   3.364   5.994
 1599W        W 2596   7.494   1.191   0.984
 1600W        W 2597   3.853   4.818   0.070
 1601W        W 2598   5.960   1.198   4.977
 1602W        W 2599   5.033   5.651   0.213
 1603W        W 2600   6.900   2.318   0.600
 1604W        W 2601   1.111   2.459   6.875
 1605W        W 2602   0.302   0.807   6.721
 1606W        W 2603   4.177   4.628   3.946
 1607W        W 2604   5.798   2.784   3.902
 1608W        W 2605   7.073   4.583   3.715
 1609W        W 2606   7.179   3.464   7.307
 1610W        W 2607   4.388   4.202   7.528
 1611W        W 2608   1.875   5.670   2.863
 1612W        W 2609   1.249   4.190   0.839
 1613W        W 2610   4.097   2.644   2.627
 1614W        W 2611   4.638   6.353   5.644
 1615W        W 2612   3.843   0.785   5.595
 1616W        W 2613   1.962   0.517   3.593
 1617W        W 2614   7.330   6.644   5.037
 1618W        W 2615   2.521   4.185   0.344
 1619W        W 2616   3.114   6.868   0.871
 1620W        W 2617   1.413   2.944   7.000
 1621W        W 2618   3.474   0.799   4.361
 1622W        W 2619   2.069   7.374   4.854
 1623W        W 2620   0.448   0.638   6.210
 1624W        W 2621   1.566   1.004   6.819
 1625W        W 2622   2.584   5.970   4.201
 1626W        W 2623   0.985   4.245   5.589
 1627W        W 2624   1.110   1.259   3.675
 1628W        W 2625   5.261   0.686   1.193
 1629W        W 2626   4.119   2.395   5.632
 1630W        W 2627   5.874   0.817   3.559
 1631W        W 2628   1.037   0.452   5.780
 1632W        W 2629   6.299   6.001   5.856
 1633W        W 2630   6.143   0.541   2.088
 1634W        W 2631   5.531   6.685   1.928
 1635W        W 2632   2.042   2.409   3.534
 1636W        W 2633   4.395   2.448   3.909
 1637W        W 2634   2.566   1.447   6.183
 1638W        W 2635   2.848   5.053   4.266
 1639W        W 2636   5.473   6.391   4.374
 1640W        W 2637   6.034   5.371   2.947
 1641W        W 2638   7.386   3.899   0.274
 1642W        W 2639   3.674   5.952   4.055
 1643W        W 2640   1.230   7.334   0.843
 1644W        W 2641   2.223   1.625   6.504
 1645W        W 2642   3.288   3.889   5.962
 1646W        W 2643   7.706   2.435   2.812
 1647W        W 2644   0.890   2.120   4.923
 1648W        W 2645   2.443   6.161   5.267
 1649W        W 2646   7.425   4.879   2.271
 1650W        W 2647   5.567   7.750   2.973
 1651W        W 2648   1.930   7.493   5.355
 1652W        W 2649   1.720   5.963   4.000
 1653W        W 2650   0.612   2.337   0.724
 1654W        W 2651   4.255   5.130   6.119
 1655W        W 2652   7.152   4.350   2.928
 1656W        W 2653   7.917   1.335   0.567
 1657W        W 2654   2.199   1.995   6.868
 1658W        W 2655   0.589   3.749   2.325
 1659W        W 2656   5.467   4.137   5.269
 1660W        W 2657   7.769   0.007   0.609
 1661W        W 2658   3.719   0.018   3.235
 1662W        W 2659   4.320   7.270   0.451
 1663W        W 2660   4.813   4.765   3.028
 1664W        W 2661   2.061   6.437   0.850
 1665W        W 2662   2.863   5.175   5.543
 1666W        W 2663   0.153   2.682   0.156
 1667W        W 2664   2.775   4.943   2.837
 1668W        W 2665   2.021   3.080   1.712
 1669W        W 2666   6.124   0.950   6.361
 1670W        W 2667   7.318   7.049   6.474
 1671W        W 2668   0.326   0.362   5.032
 1672W        W 2669   4.045   6.518   2.556
 1673W        W 2670   3.916   2.169   2.571
 1674W        W 2671   0.726   0.133   1.450
 1675W        W 2672   4.917   4.577   6.107
 1676W        W 2673   4.726   6.268   3.282
 1677W        W 2674   2.015   3.447   4.292
 1678W        W 2675   0.942   0.045   7.397
 1679W        W 2676   4.214   6.426   0.818
 1680W        W 2677   0.938   2.908   6.753
 1681W        W 2678   3.070   3.944   5.142
 1682W        W 2679   4.512   0.027   1.725
 1683W        W 2680   0.766   6.490   4.750
 1684W        W 2681   6.610   2.008   7.665
 1685W        W 2682   5.943   7.490   2.121
 1686W        W 2683   3.714   6.869   0.295
 1687W        W 2684   4.883   0.308   0.446
 1688W        W 2685   2.308   3.787   7.320
 1689W        W 2686   4.270   4.141   6.190
 1690W        W 2687   4.616   1.846   1.382
 1691W        W 2688   2.951   1.450   3.834
 1692W        W 2689   1.573   0.384   4.582
 1693W        W 2690   1.293   4.122   1.702
 1694W        W 2691   1.364   0.711   1.909
 1695W        W 2692   0.721   5.963   5.409
 1696W        W 2693   0.454   0.381   2.065
 1697W        W 2694   5.205   3.388   0.588
 1698W        W 2695   4.296   3.258   4.496
 1699W        W 2696   5.036   3.868   1.023
 1700W        W 2697   2.112   6.221   4.236
 1701W        W 2698   3.852   3.025   1.763
 1702W        W 2699   6.383   1.554   7.511
 1703W        W 2700   3.671   7.465   4.715
 1704W        W 2701   0.715   6.990   4.646
 1705W        W 2702   0.548   2.462   1.569
 1706W        W 2703   2.172   6.763   0.433
 1707W        W 2704   2.230   5.879   0.403
 1708W        W 2705   1.522   4.102   4.276
 1709W        W 2706   0.988   3.514   5.086
 1710W        W 2707   2.072   5.509   5.415
 1711W        W 2708   6.074   4.177   2.809
 1712W        W 2709   4.080   4.237   6.683
 1713W        W 2710   4.665   1.165   0.297
 1714W        W 2711   0.621   6.282   2.585
 1715W        W 2712   4.929   5.654   6.654
 1716W        W 2713   4.505   1.092   6.669
 1717W        W 2714   0.290   6.139   6.042
 1718W        W 2715   7.285   7.605   3.871
 1719W        W 2716   6.005   7.506   5.724
 1720W        W 2717   5.631   0.344   2.737
 1721W        W 2718   5.580   7.423   4.392
 1722W        W 2719   5.927   2.244   2.715
 1723W        W 2720   5.787   1.949   5.289
 1724W        W 2721   7.447   6.249   5.807
 1725W        W 2722   2.034   0.786   1.824
 1726W        W 2723   4.717   4.169   0.270
 1727W        W 2724   0.612   7.069   7.615
 1728W        W 2725   2.352   5.459   0.670
 1729W        W 2726   1.368   7.756   1.100
 1730W        W 2727   4.551   5.998   4.611
 1731W        W 2728   1.355   7.960   7.427
 1732W        W 2729   5.969   2.937   7.246
 1733W        W 2730   2.370   6.774   1.299
 1734W        W 2731   4.830   1.667   0.222
 1735W        W 2732   7.390   6.099   1.076
 1736W        W 2733   3.657   1.297   6.978
 1737W        W 2734   4.447   4.458   4.385
 1738W        W 2735   3.032   2.300   0.911
 1739W        W 2736   3.076   6.488   3.479
 1740W        W 2737   3.312   3.741   7.089
 1741W        W 2738   3.918   2.826   0.213
 1742W        W 2739   4.656   6.791   7.052
 1743W        W 2740   3.806   6.906   2.221
 1744W        W 2741   7.464   4.337   1.413
 1745W        W 2742   1.634   1.361   7.526
 1746W        W 2743   6.781   5.229   7.787
 1747W        W 2744   0.824   4.641   7.502
 1748W        W 2745   3.539   2.936   6.742
 1749W        W 2746   0.574   4.829   6.865
 1750W        W 2747   0.809   6.249   6.416
 1751W        W 2748   2.334   4.612   3.045
 1752W        W 2749   6.421   3.439   1.378
 1753W        W 2750   2.523   3.767   3.990
 1754W        W 2751   4.141   2.110   4.654
 1755W        W 2752   3.156   3.795   2.145
 1756W        W 2753   7.699   6.299   0.657
 1757W        W 2754   1.000   2.528   3.516
 1758W        W 2755   5.976   1.385   1.665
 1759W        W 2756   2.449   1.452   6.961
 1760W        W 2757   7.434   7.999   7.757
 1761W        W 2758   6.953   3.751   4.740
 1762W        W 2759   3.286   7.186   5.262
 1763W        W 2760   3.228   1.384   4.333
 1764W        W 2761   1.714   7.015   3.110
 1765W        W 2762   4.507   1.992   3.671
 1766W        W 2763   4.557   0.474   6.112
 1767W        W 2764   2.732   1.795   4.676
 1768W        W 2765   6.096   7.198   1.694
 1769W        W 2766   3.501   5.123   1.203
 1770W        W 2767   0.218   3.341   0.548
 1771W        W 2768   1.149   1.280   0.176
 1772W        W 2769   2.243   6.374   6.846
 1773W        W 2770   3.839   5.018   1.902
 1774W        W 2771   6.737   1.683   5.535
 1775W        W 2772   2.236   1.807   3.504
 1776W        W 2773   6.465   4.263   1.682
 1777W        W 2774   4.609   3.604   7.491
 1778W        W 2775   0.145   7.014   7.565
 1779W        W 2776   6.803   1.985   6.028
 1780W        W 2777   5.795   7.642   5.286
 1781W        W 2778   6.118   6.671   2.613
 1782W        W 2779   4.283   4.278   0.635
 1783W        W 2780   3.646   5.627   4.519
 1784W        W 2781   0.041   3.567   4.054
 1785W        W 2782   7.584   1.423   3.453
 1786W        W 2783   5.750   0.903   2.899
 1787W        W 2784   5.680   3.808   3.481
 1788W        W 2785   2.062   0.753   5.628
 1789W        W 2786   6.958   3.903   5.267
 1790W        W 2787   1.268   3.395   4.717
 1791W        W 2788   4.620   4.195   1.225
 1792W        W 2789   0.701   2.712   7.109
 1793W        W 2790   0.211   6.146   2.027
 1794W        W 2791   4.886   3.186   5.348
 1795W        W 2792   3.319   6.605   1.799
 1796W        W 2793   0.096   0.840   5.805
 1797W        W 2794   3.081   6.574   6.422
 1798W        W 2795   0.478   5.827   0.451
 1799W        W 2796   5.625   4.828   4.497
 1800W        W 2797   5.034   5.779   4.941
 1801W        W 2798   7.385   6.463   0.108
 1802W        W 2799   1.239   3.952   2.832
 1803W        W 2800   4.080   1.861   5.925
 1804W        W 2801   6.219   3.480   1.869
 1805W        W 2802   3.275   5.192   5.873
 1806W        W 2803   1.488   3.470   6.015
 1807W        W 2804   5.521   7.260   0.821
 1808W        W 2805   6.354   2.104   5.081
 1809W        W 2806   1.212   4.380   1.303
 1810W        W 2807   6.844   4.263   6.637
 1811W        W 2808   1.089   6.075   1.719
 1812W        W 2809   0.263   5.949   2.745
 1813W        W 2810   4.371   5.161   7.115
 1814W        W 2811   2.051   0.698   1.134
 1815W        W 2812   5.958   1.234   0.640
 1816W        W 2813   3.764   1.533   2.223
 1817W        W 2814   7.117   4.665   0.600
 1818W        W 2815   5.412   4.293   0.654
 1819W        W 2816   5.084   2.527   6.522
 1820W        W 2817   2.245   1.882   6.034
 1821W        W 2818   1.216   2.837   3.160
 1822W        W 2819   3.278   0.957   6.817
 1823W        W 2820   7.207   7.464   0.255
 1824W        W 2821   5.989   2.246   0.315
 1825W        W 2822   7.474   4.896   3.837
 1826W        W 2823   0.162   5.335   3.125
 1827W        W 2824   5.772   5.408   1.892
 1828W        W 2825   0.563   6.360   6.866
 1829W        W 2826   1.679   3.131   3.960
 1830W        W 2827   4.232   7.719   1.172
 1831W        W 2828   1.862   5.139   2.330
 1832W        W 2829   5.484   5.382   1.431
 1833W        W 2830   2.121   5.639   6.736
 1834W        W 2831   0.173   6.455   2.522
 1835W        W 2832   5.135   4.834   0.711
 1836W        W 2833   0.910   2.543   2.820
 1837W        W 2834   7.288   0.628   2.954
 1838W        W 2835   5.340   0.979   6.624
 1839W        W 2836   6.087   0.257   5.507
 1840W        W 2837   6.699   5.577   6.068
 1841W        W 2838   1.514   6.414   4.897
 1842W        W 2839   3.148   2.064   6.582
 1843W        W 2840   7.590   4.065   6.029
 1844W        W 2841   7.778   2.212   3.494
 1845W        W 2842   2.633   6.592   6.671
 1846W        W 2843   7.014   0.758   5.575
 1847W        W 2844   7.161   2.308   6.846
 1848W        W 2845   2.008   2.416   2.989
 1849W        W 2846   0.508   3.635   5.074
 1850W        W 2847   5.797   3.576   0.022
 1851W        W 2848   6.622   0.755   5.958
 1852W        W 2849   1.246   4.714   4.776
 1853W        W 2850   2.090   3.210   2.385
 1854W        W 2851   3.004   6.184   6.099
 1855W        W 2852   4.865   2.099   6.601
 1856W        W 2853   6.064   3.808   1.584
 1857W        W 2854   5.454   0.482   0.221
 1858W        W 2855   3.931   4.829   6.378
 1859W        W 2856   2.298   0.101   5.777
 1860W        W 2857   4.674   1.634   4.049
 1861W        W 2858   4.324   1.275   2.658
 1862W        W 2859   3.206   0.200   7.426
 1863W        W 2860   3.348   5.392   4.159
 1864W        W 2861   6.829   1.081   2.116
 1865W        W 2862   3.873   3.403   4.280
 1866W        W 2863   0.250   5.444   2.615
 1867W        W 2864   2.171   3.129   1.158
 1868W        W 2865   0.761   5.834   1.365
 1869W        W 2866   2.897   5.189   1.945
 1870W        W 2867   6.924   5.663   7.516
 1871W        W 2868   0.252   6.321   5.505
 1872W        W 2869   0.999   1.575   1.240
 1873W        W 2870   2.669   5.857   0.711
 1874W        W 2871   2.109   6.761   4.220
 1875W        W 2872   1.855   0.008   4.644
 1876W        W 2873   4.581   3.576   0.203
 1877W        W 2874   1.275   3.983   5.953
 1878W        W 2875   7.166   7.340   7.073
 1879W        W 2876   4.955   7.670   5.810
 1880W        W 2877   3.845   4.224   0.864
 1881W        W 2878   4.206   1.064   4.467
 1882W        W 2879   3.553   7.069   3.098
 1883W        W 2880   0.902   5.098   5.379
 1884W        W 2881   0.218   5.814   7.459
 1885W        W 2882   6.828   2.538   2.613
 1886W        W 2883   7.382   1.826   7.628
 1887W        W 2884   0.652   1.996   3.002
 1888W        W 2885   3.335   7.377   3.873
 1889W        W 2886   1.988   3.482   3.790
 1890W        W 2887   6.788   4.567   1.136
 1891W        W 2888   6.986   1.091   7.327
 1892W        W 2889   3.232   3.637   1.184
 1893W        W 2890   7.208   6.114   2.773
 1894W        W 2891   2.496   3.248   1.568
 1895W        W 2892   3.246   3.966   4.592
 1896W        W 2893   5.919   0.474   3.160
 1897W        W 2894   2.226   5.983   3.793
 1898W        W 2895   3.987   5.360   6.617
 1899W        W 2896   6.694   0.054   2.632
 1900W        W 2897   4.480   4.619   1.488
 1901W        W 2898   7.046   1.351   2.748
 1902W        W 2899   3.568   5.426   3.695
 1903W        W 2900   1.183   2.925   4.479
 1904W        W 2901   2.851   1.354   4.767
 1905W        W 2902   4.930   2.152   0.417
 1906W        W 2903   1.365   5.575   2.878
 1907W        W 2904   5.550   0.934   0.903
 1908W        W 2905   2.230   4.743   2.211
 1909W        W 2906   7.504   0.718   2.275
 1910W        W 2907   4.484   4.262   1.770
 1911W        W 2908   2.129   7.321   4.267
 1912W        W 2909   4.734   1.451   7.433
 1913W        W 2910   7.606   6.997   3.671
 1914W        W 2911   5.458   7.250   7.553
 1915W        W 2912   5.494   0.598   4.215
 1916W        W 2913   4.716   6.765   3.543
 1917W        W 2914   1.042   4.241   4.080
 1918W        W 2915   7.744   3.892   3.563
 1919W        W 2916   0.779   0.999   0.453
 1920W        W 2917   5.931   6.818   6.623
 1921W        W 2918   1.308   3.509   7.007
 1922W        W 2919   1.600   0.992   1.243
 1923W        W 2920   1.279   7.200   7.412
 1924W        W 2921   1.781   2.625   1.639
 1925W        W 2922   2.386   7.083   7.388
 1926W        W 2923   1.947   4.569   5.697
 1927W        W 2924   4.389   6.038   6.102
 1928W        W 2925   3.083   3.534   2.502
 1929W        W 2926   1.068   6.386   6.983
 1930W        W 2927   1.229   0.181   0.542
 1931W        W 2928   1.669   5.554   4.272
 1932W        W 2929   1.082   0.725   7.076
 1933W        W 2930   6.805   6.437   2.152
 1934W        W 2931   3.837   6.798   3.835
 1935W        W 2932   7.790   7.073   6.995
 1936W        W 2933   4.247   6.437   7.319
 1937W        W 2934   5.303   5.041   3.127
 1938W        W 2935   3.117   3.294   7.520
 1939W        W 2936   0.376   5.804   6.950
 1940W        W 2937   1.110   3.821   1.276
 1941W        W 2938   1.421   1.628   3.957
 1942W        W 2939   0.104   6.058   0.834
 1943W        W 2940   5.507   5.082   5.500
 1944W        W 2941   3.947   3.026   4.696
 1945W        W 2942   5.989   6.834   2.167
 1946W        W 2943   1.529   5.814   1.707
 1947W        W 2944   6.769   6.851   5.832
 1948W        W 2945   6.058   0.478   4.867
 1949W        W 2946   4.480   1.822   4.931
 1950W        W 2947   4.725   0.042   3.589
 1951W        W 2948   3.558   2.223   5.276
 1952W        W 2949   1.804   0.351   5.506
 1953W        W 2950   1.537   7.087   1.849
 1954W        W 2951   6.088   4.661   1.547
 1955W        W 2952   5.708   1.903   0.037
 1956W        W 2953   5.630   6.787   1.121
 1957W        W 2954   0.644   2.928   1.359
 1958W        W 2955   6.453   3.035   7.293
 1959W        W 2956   4.664   1.779   1.867
 1960W        W 2957   7.704   1.951   6.328
 1961W        W 2958   5.886   0.027   5.063
 1962W        W 2959   0.372   2.585   6.091
 1963W        W 2960   0.018   7.813   7.121
 1964W        W 2961   1.773   5.616   6.378
 1965W        W 2962   1.019   1.694   5.050
 1966W        W 2963   7.173   7.619   3.381
 1967W        W 2964   5.544   1.009   4.693
 1968W        W 2965   1.641   7.805   5.591
 1969W        W 2966   5.860   1.826   3.177
 1970W        W 2967   4.464   2.025   0.416
 1971W        W 2968   1.119   1.322   1.653
 1972W        W 2969   6.616   3.000   2.510
 1973W        W 2970   1.498   6.300   7.258
 1974W        W 2971   7.880   4.695   2.447
 1975W        W 2972   1.089   0.951   6.147
 1976W        W 2973   7.939   7.609   1.269
 1977W        W 2974   7.814   6.561   6.840
 1978W        W 2975   4.960   4.899   5.403
 1979W        W 2976   3.399   1.465   7.873
 1980W        W 2977   4.192   6.397   4.677
 1981W        W 2978   0.905   2.939   1.780
 1982W        W 2979   2.230   5.745   7.698
 1983W        W 2980   1.069   1.086   6.610
 1984W        W 2981   2.942   1.370   0.471
 1985W        W 2982   7.928   7.158   1.884
 1986W        W 2983   3.392   6.196   5.279
 1987W        W 2984   6.058   4.792   2.478
 1988W        W 2985   6.084   7.280   4.401
 1989W        W 2986   6.257   2.546   7.049
 1990W        W 2987   3.231   4.870   3.951
 1991W        W 2988   1.111   5.001   6.637
 1992W        W 2989   1.914   4.505   0.423
 1993W        W 2990   6.547   1.250   2.513
 1994W        W 2991   3.953   4.801   4.660
 1995W        W 2992   2.064   5.285   4.671
 1996W        W 2993   0.980   5.934   6.746
 1997W        W 2994   2.474   4.554   3.569
 1998W        W 2995   4.230   3.791   5.564
 1999W        W 2996   7.683   7.643   1.674
 2000W        W 2997   4.058   2.877   5.157
 2001W        W 2998   0.227   0.752   3.516
 2002W        W 2999   0.232   0.842   4.000
 2003W        W 3000   6.693   0.490   2.870
 2004W        W 3001   1.815   1.539   3.692
 2005W        W 3002   2.143   5.431   0.147
 2006W        W 3003   6.948   5.099   0.420
 2007W        W 3004   4.020   3.477   7.739
 2008W        W 3005   2.827   0.854   6.900
 2009W        W 3006   4.912   7.167   6.819
 2010W        W 3007   7.252   3.724   3.317
 2011W        W 3008   0.162   1.208   6.194
 2012W        W 3009   0.939   2.608   1.054
 2013W        W 3010   6.930   3.290   1.548
 2014W        W 3011   6.875   2.443   7.941
 2015W        W 3012   2.224   7.372   2.325
 2016W        W 3013   1.354   6.380   3.694
 2017W        W 3014   0.232   0.326   0.117
 2018W        W 3015   6.595   7.303   4.501
 2019W        W 3016   7.065   3.438   6.826
 2020W        W 3017   4.043   3.532   1.679
 2021W        W 3018   7.006   7.441   1.834
 2022W        W 3019   2.497   5.128   0.319
 2023W        W 3020   5.769   2.356   6.202
 2024W        W 3021   4.160   1.781   2.363
 2025W        W 3022   6.145   3.224   7.673
 2026W        W 3023   5.229   1.415   3.787
 2027W        W 3024   4.945   3.942   1.648
 2028W        W 3025   6.393   6.526   5.815
 2029W        W 3026   2.329   1.970   4.965
 2030W        W 3027   1.610   4.718   1.373
 2031W        W 3028   1.421   4.692   0.411
 2032W        W 3029   3.969   2.968   3.260
 2033W        W 3030   0.714   2.734   4.520
 2034W        W 3031   0.895   3.346   2.040
 2035W        W 3032   3.964   0.095   7.596
 2036W        W 3033   6.964   1.535   2.299
 2037W        W 3034   1.916   6.162   6.509
 2038W        W 3035   0.810   3.740   4.701
 2039W        W 3036   3.886   2.596   6.532
 2040W        W 3037   4.173   0.688   4.726
 2041W        W 3038   6.142   3.025   2.139
 2042W        W 3039   0.879   4.754   4.268
 2043W        W 3040   2.978   5.242   6.632
 2044W        W 3041   6.887   0.308   4.326
 2045W        W 3042   2.869   5.454   3.157
 2046W        W 3043   6.847   7.061   6.775
 2047W        W 3044   6.100   5.880   4.204
 2048W        W 3045   5.428   4.338   6.311
 2049W        W 3046   0.696   2.593   5.201
 2050W        W 3047   3.725   7.776   2.289
 2051W        W 3048   3.485   1.510   4.750
 2052W        W 3049   6.052   5.610   7.202
 2053W        W 3050   5.622   2.695   7.608
 2054W        W 3051   0.203   4.385   2.512
 2055W        W 3052   7.213   2.023   6.405
 2056W        W 3053   7.265   3.383   4.131
 2057W        W 3054   0.897   2.437   1.927
 2058W        W 3055   6.744   5.944   5.570
 2059W        W 3056   5.191   4.403   4.922
 2060W        W 3057   4.155   3.388   0.822
 2061W        W 3058   5.980   0.222   6.923
 2062W        W 3059   1.931   5.643   1.890
 2063W        W 3060   5.361   5.747   4.392
 2064W        W 3061   5.150   4.302   1.191
 2065W        W 3062   2.904   0.136   3.613
 2066W        W 3063   7.346   5.819   4.287
 2067W        W 3064   3.982   0.049   1.331
 2068W        W 3065   0.950   7.602   7.897
 2069W        W 3066   2.175   4.301   4.528
 2070W        W 3067   7.028   7.809   1.031
 2071W        W 3068   5.490   1.311   1.813
 2072W        W 3069   1.715   3.751   2.946
 2073W        W 3070   1.969   0.800   7.492
 2074W        W 3071   3.614   5.681   6.101
 2075W        W 3072   6.375   0.152   3.029
 2076W        W 3073   6.007   2.726   6.585
 2077W        W 3074   5.124   7.519   0.590
 2078W        W 3075   0.631   2.561   6.552
 2079W        W 3076   6.940   7.160   3.148
 2080W        W 3077   0.904   0.203   6.894
 2081W        W 3078   6.977   2.464   1.216
 2082W        W 3079   1.003   7.335   3.802
 2083W        W 3080   7.680   2.976   3.495
 2084W        W 3081   6.036   4.268   4.576
 2085W        W 3082   7.041   7.097   7.540
 2086W        W 3083   3.354   2.013   1.790
 2087W        W 3084   2.768   0.619   3.835
 2088W        W 3085   2.150   0.807   5.092
 2089W        W 3086   5.449   2.810   6.303
 2090W        W 3087   1.060   6.492   1.365
 2091W        W 3088   5.555   7.621   7.290
 2092W        W 3089   3.691   5.193   2.841
 2093W        W 3090   6.516   0.704   5.207
 2094W        W 3091   7.685   3.752   0.675
 2095W        W 3092   7.342   4.455   4.127
 2096W        W 3093   0.872   0.546   1.706
 2097W        W 3094   7.572   0.771   0.087
 2098W        W 3095   3.516   5.082   0.621
 2099W        W 3096   5.756   2.698   0.226
 2100W        W 3097   1.899   2.264   4.275
 2101W        W 3098   6.558   6.847   0.143
 2102W        W 3099   0.443   7.415   7.157
 2103W        W 3100   1.786   7.842   0.605
 2104W        W 3101   1.247   2.453   5.273
 2105W        W 3102   1.708   0.644   5.006
 2106W        W 3103   5.907   4.243   7.130
 2107W        W 3104   0.806   3.828   6.025
 2108W        W 3105   7.492   0.128   5.132
 2109W        W 3106   5.073   7.462   4.394
 2110W        W 3107   6.704   5.388   4.885
 2111W        W 3108   5.110   0.027   7.707
 2112W        W 3109   3.310   5.472   0.875
 2113W        W 3110   5.725   3.801   4.419
 2114W        W 3111   4.911   1.143   4.080
 2115W        W 3112   3.717   5.742   5.093
 2116W        W 3113   4.792   2.132   4.068
 2117W        W 3114   7.317   7.223   4.236
 2118W        W 3115   1.492   0.154   5.789
 2119W        W 3116   1.078   7.080   2.087
 2120W        W 3117   0.613   0.002   0.178
 2121W        W 3118   6.871   3.910   6.229
 2122W        W 3119   2.419   6.278   0.534
 2123W        W 3120   7.835   2.327   2.343
 2124W        W 3121   2.330   4.349   0.738
 2125W        W 3122   5.207   3.082   6.648
 2126W        W 3123   3.010   2.529   6.167
 2127W        W 3124   1.520   3.293   3.084
 2128W        W 3125   5.039   4.198   2.823
 2129W        W 3126   2.634   6.972   4.249
 2130W        W 3127   7.788   2.970   6.560
 2131W        W 3128   4.629   6.282   1.933
 2132W        W 3129   4.204   0.818   0.112
 2133W        W 3130   6.707   0.517   4.802
 2134W        W 3131   4.422   0.979   3.282
 2135W        W 3132   4.621   4.225   5.770
 2136W        W 3133   1.565   6.430   4.329
 2137W        W 3134   0.408   0.875   3.054
 2138W        W 3135   4.923   0.493   1.603
 2139W        W 3136   6.733   6.893   7.191
 2140W        W 3137   5.080   6.180   0.174
 2141W        W 3138   1.728   0.347   1.988
 2142W        W 3139   1.136   2.339   1.479
 2143W        W 3140   4.916   3.628   2.192
 2144W        W 3141   4.574   7.926   4.492
 2145W        W 3142   6.431   2.981   4.706
 2146W        W 3143   4.453   1.194   1.762
 2147W        W 3144   3.291   6.397   4.633
 2148W        W 3145   6.050   6.236   2.412
 2149W        W 3146   3.663   7.116   1.159
 2150W        W 3147   0.318   6.306   3.936
 2151W        W 3148   0.132   4.937   6.495
 2152W        W 3149   5.599   6.659   2.415
 2153W        W 3150   7.719   2.776   5.212
 2154W        W 3151   6.565   1.234   0.507
 2155W        W 3152   6.632   4.112   7.472
 2156W        W 3153   6.335   5.825   4.635
 2157W        W 3154   4.731   1.141   2.898
 2158W        W 3155   1.793   7.700   4.061
 2159W        W 3156   0.518   0.560   5.704
 2160W        W 3157   3.605   6.627   0.859
 2161W        W 3158   5.144   0.091   0.880
 2162W        W 3159   5.644   4.654   5.854
 2163W        W 3160   7.455   4.821   1.507
 2164W        W 3161   7.360   2.670   0.803
 2165W        W 3162   7.054   1.237   0.668
 2166W        W 3163   3.747   0.504   7.963
 2167W        W 3164   4.836   0.914   2.460
 2168W        W 3165   4.485   1.081   3.947
 2169W        W 3166   7.461   0.564   5.467
 2170W        W 3167   1.196   2.100   3.814
 2171W        W 3168   2.814   2.144   1.301
 2172W        W 3169   4.115   3.401   3.527
 2173W        W 3170   4.010   0.363   7.172
 2174W        W 3171   2.665   1.281   2.603
 2175W        W 3172   6.451   7.251   5.908
 2176W        W 3173   4.643   2.299   1.643
 2177W        W 3174   5.734   6.775   3.586
 2178W        W 3175   3.903   3.805   0.033
 2179W        W 3176   1.245   1.892   7.627
 2180W        W 3177   1.369   0.912   4.711
 2181W        W 3178   0.136   7.306   4.068
 2182W        W 3179   7.712   2.916   1.059
 2183W        W 3180   3.713   3.025   7.632
 2184W        W 3181   1.917   1.758   4.161
 2185W        W 3182   4.830   5.991   4.145
 2186W        W 3183   2.016   3.438   6.221
 2187W        W 3184   6.293   5.731   2.574
 2188W        W 3185   6.619   6.289   4.656
 2189W        W 3186   6.605   0.380   5.674
 2190W        W 3187   3.845   7.229   3.597
 2191W        W 3188   1.483   2.462   2.911
 2192W        W 3189   7.127   5.552   6.250
 2193W        W 3190   7.644   1.662   4.360
 2194W        W 3191   2.259   4.979   2.707
 2195W        W 3192   1.927   5.742   3.512
 2196W        W 3193   6.951   5.347   4.430
 2197W        W 3194   4.809   7.388   6.248
 2198W        W 3195   1.508   0.918   0.706
 2199W        W 3196   2.419   6.193   7.567
 2200W        W 3197   1.471   1.984   5.645
 2201W        W 3198   6.239   7.153   2.653
 2202W        W 3199   6.896   5.240   6.613
 2203W        W 3200   0.248   6.419   4.520
 2204W        W 3201   5.987   6.706   4.450
 2205W        W 3202   4.150   6.563   3.433
 2206W        W 3203   1.709   3.452   2.051
 2207W        W 3204   5.853   5.479   3.467
 2208W        W 3205   5.027   6.128   3.666
 2209W        W 3206   1.676   0.131   1.333
 2210W        W 3207   6.952   7.493   2.838
 2211W        W 3208   6.462   3.965   1.228
 2212W        W 3209   1.542   2.613   4.929
 2213W        W 3210   6.478   7.410   2.230
 2214W        W 3211   2.854   6.739   5.971
 2215W        W 3212   4.171   7.735   0.390
 2216W        W 3213   6.433   1.727   2.370
 2217W        W 3214   3.951   3.773   3.846
 2218W        W 3215   3.476   6.216   6.247
 2219W        W 3216   4.144   1.086   0.563
 2220W        W 3217   5.976   4.273   1.778
 2221W        W 3218   7.483   5.725   2.533
 2222W        W 3219   4.136   3.286   2.536
 2223W        W 3220   0.953   1.296   4.738
 2224W        W 3221   4.059   6.338   7.776
 2225W        W 3222   6.695   3.304   5.453
 2226W        W 3223   5.764   7.248   1.329
 2227W        W 3224   4.039   0.591   4.170
 2228W        W 3225   2.926   2.115   7.123
 2229W        W 3226   2.477   6.826   2.954
 2230W        W 3227   5.555   3.660   3.024
 2231W        W 3228   2.376   4.450   5.033
 2232W        W 3229   2.247   4.159   6.946
 2233W        W 3230   5.390   3.030   1.382
 2234W        W 3231   6.106   2.278   6.644
 2235W        W 3232   2.685   5.626   4.663
 2236W        W 3233   4.984   1.447   5.905
 2237W        W 3234   7.443   7.093   3.193
 2238W        W 3235   5.739   3.897   4.912
 2239W        W 3236   4.997   3.088   4.195
 2240W        W 3237   2.423   0.289   3.616
 2241W        W 3238   1.099   2.567   4.093
 2242W        W 3239   1.967   3.293   3.298
 2243W        W 3240   6.123   4.246   6.524
 2244W        W 3241   5.251   3.082   4.908
 2245W        W 3242   5.037   5.659   3.284
 2246W        W 3243   7.133   3.427   5.196
 2247W        W 3244   3.815   5.509   3.243
 2248W        W 3245   1.780   2.873   2.126
 2249W        W 3246   3.029   1.021   7.718
 2250W        W 3247   6.670   6.111   7.621
 2251W        W 3248   0.292   7.669   4.888
 2252W        W 3249   7.135   7.534   6.400
 2253W        W 3250   4.574   3.697   5.924
 2254W        W 3251   2.107   2.008   0.655
 2255W        W 3252   6.875   3.095   0.971
 2256W        W 3253   3.218   6.107   1.907
 2257W        W 3254   1.544   0.199   5.038
 2258W        W 3255   1.450   0.460   4.087
 2259W        W 3256   2.841   6.672   1.246
 2260W        W 3257   1.278   3.882   4.863
 2261W        W 3258   5.001   5.580   7.208
 2262W        W 3259   6.966   4.513   7.226
 2263W        W 3260   5.764   7.175   5.399
 2264W        W 3261   4.330   1.230   4.911
 2265W        W 3262   3.341   5.430   3.134
 2266W        W 3263   1.903   2.693   0.976
 2267W        W 3264   5.820   0.175   0.058
 2268W        W 3265   0.478   6.759   5.044
 2269W        W 3266   5.564   5.823   5.305
 2270W        W 3267   5.302   6.684   0.721
 2271W        W 3268   5.586   1.293   3.450
 2272W        W 3269   0.690   5.426   4.971
 2273W        W 3270   2.518   0.477   4.889
 2274W        W 3271   0.700   3.652   7.780
 2275W        W 3272   1.488   5.189   6.388
 2276W        W 3273   1.044   1.307   4.171
 2277W        W 3274   3.809   7.745   2.842
 2278W        W 3275   6.523   5.783   7.263
 2279W        W 3276   7.441   5.738   4.790
 2280W        W 3277   0.513   1.830   4.811
 2281W        W 3278   3.101   5.711   1.584
 2282W        W 3279   3.629   3.848   0.435
 2283W        W 3280   5.246   2.146   3.864
 2284W        W 3281   0.525   2.920   5.693
 2285W        W 3282   6.967   2.028   1.001
 2286W        W 3283   4.198   2.082   1.728
 2287W        W 3284   2.406   5.881   1.700
 2288W        W 3285   4.833   2.440   3.589
 2289W        W 3286   3.858   0.726   2.009
 2290W        W 3287   1.931   6.158   1.784
 2291W        W 3288   2.208   0.347   1.461
 2292W        W 3289   1.214   5.196   5.003
 2293W        W 3290   2.459   0.814   2.590
 2294W        W 3291   7.754   1.383   6.869
 2295W        W 3292   7.678   3.352   3.801
 2296W        W 3293   3.599   4.221   3.202
 2297W        W 3294   4.835   6.475   6.102
 2298W        W 3295   2.079   7.093   2.774
 2299W        W 3296   6.668   1.202   5.647
 2300W        W 3297   3.288   3.576   0.228
 2301W        W 3298   5.373   4.605   5.382
 2302W        W 3299   2.251   4.376   7.539
 2303W        W 3300   4.640   3.769   4.008
 2304W        W 3301   1.031   7.581   2.617
 2305W        W 3302   1.216   3.720   3.284
 2306W        W 3303   6.456   1.651   3.801
 2307W        W 3304   6.677   7.587   0.570
 2308W        W 3305   4.944   2.586   4.064
 2309W        W 3306   4.989   1.796   3.641
 2310W        W 3307   5.051   0.339   4.028
 2311W        W 3308   3.642   3.473   2.554
 2312W        W 3309   3.650   0.017   5.881
 2313W        W 3310   1.544   5.166   0.676
 2314W        W 3311   4.218   7.699   3.800
 2315W        W 3312   0.378   6.253   4.988
 2316W        W 3313   7.775   6.169   2.697
 2317W        W 3314   6.416   1.033   4.864
 2318W        W 3315   6.368   3.887   6.190
 2319W        W 3316   1.510   2.028   4.292
 2320W        W 3317   0.429   1.961   2.520
 2321W        W 3318   4.657   2.781   7.385
 2322W        W 3319   1.677   1.401   4.370
 2323W        W 3320   2.210   7.171   6.605
 2324W        W 3321   2.523   4.450   1.529
 2325W        W 3322   7.815   3.313   6.166
 2326W        W 3323   6.936   1.818   5.127
 2327W        W 3324   0.129   3.465   3.483
 2328W        W 3325   7.636   6.668   2.387
 2329W        W 3326   2.842   3.989   1.144
 2330W        W 3327   1.386   7.552   7.050
 2331W        W 3328   3.608   5.888   6.603
 2332W        W 3329   3.419   3.750   6.563
 2333W        W 3330   2.886   6.345   3.040
 2334W        W 3331   2.489   5.551   3.482
 2335W        W 3332   6.005   6.215   4.596
 2336W        W 3333   1.671   1.758   0.733
 2337W        W 3334   0.728   5.926   4.751
 2338W        W 3335   7.587   2.137   1.851
 2339W        W 3336   5.125   4.773   4.623
 2340W        W 3337   5.635   0.753   5.704
 2341W        W 3338   6.228   5.542   5.016
 2342W        W 3339   2.889   1.781   2.951
 2343W        W 3340   3.796   7.309   6.534
 2344W        W 3341   4.167   2.570   2.006
 2345W        W 3342   6.396   3.310   4.315
 2346W        W 3343   4.122   0.905   3.715
 2347W        W 3344   5.216   2.380   5.041
 2348W        W 3345   3.280   5.508   2.105
 2349W        W 3346   2.648   4.766   7.577
 2350W        W 3347   6.948   5.027   1.369
 2351W        W 3348   7.701   6.138   2.143
 2352W        W 3349   5.475   5.899   7.382
 2353W        W 3350   3.161   6.835   0.380
 2354W        W 3351   4.757   3.484   4.378
 2355W        W 3352   0.737   3.278   4.419
 2356W        W 3353   2.713   1.525   3.347
 2357W        W 3354   6.111   6.953   5.798
 2358W        W 3355   4.017   1.925   0.666
 2359W        W 3356   2.654   5.614   5.578
 2360W        W 3357   0.895   0.387   2.244
 2361W        W 3358   1.253   7.497   6.562
 2362W        W 3359   2.128   1.851   0.100
 2363W        W 3360   0.079   3.171   7.051
 2364W        W 3361   2.124   1.533   0.523
 2365W        W 3362   1.473   0.910   7.377
 2366W        W 3363   5.721   2.465   5.275
 2367W        W 3364   2.497   2.480   7.671
 2368W        W 3365   0.382   2.418   2.772
 2369W        W 3366   6.748   0.224   3.354
 2370W        W 3367   7.149   4.594   1.848
 2371W        W 3368   7.420   6.188   3.252
 2372W        W 3369   2.365   4.870   1.741
 2373W        W 3370   2.344   5.361   3.023
 2374W        W 3371   5.416   0.299   1.415
 2375W        W 3372   0.714   0.625   1.251
 2376W        W 3373   6.093   2.588   7.528
 2377W        W 3374   0.735   2.176   3.923
 2378W        W 3375   2.472   4.007   7.906
 2379W        W 3376   5.545   7.827   1.351
 2380W        W 3377   0.124   0.319   5.971
 2381W        W 3378   6.416   1.162   0.953
 2382W        W 3379   0.616   5.456   4.477
 2383W        W 3380   6.089   6.457   7.037
 2384W        W 3381   4.948   4.407   4.291
 2385W        W 3382   4.021   0.525   1.183
 2386W        W 3383   6.944   0.792   2.590
 2387W        W 3384   0.982   5.379   3.104
 2388W        W 3385   1.874   6.790   5.058
 2389W        W 3386   7.388   7.790   0.654
 2390W        W 3387   5.809   3.002   6.001
 2391W        W 3388   1.058   6.603   5.652
 2392W        W 3389   5.939   0.068   0.571
 2393W        W 3390   5.789   1.072   3.986
 2394W        W 3391   1.422   7.697   1.736
 2395W        W 3392   0.399   6.776   7.109
 2396W        W 3393   2.339   1.238   5.069
 2397W        W 3394   2.571   6.662   5.562
 2398W        W 3395   1.515   5.928   3.133
 2399W        W 3396   0.562   5.079   2.993
 2400W        W 3397   0.048   2.331   1.604
 2401W        W 3398   1.970   3.726   1.046
 2402W        W 3399   6.328   3.468   2.389
 2403W        W 3400   7.054   3.440   6.324
 2404W        W 3401   0.449   6.542   6.282
 2405W        W 3402   3.318   0.495   0.563
 2406W        W 3403   1.876   1.648   5.698
 2407W        W 3404   6.973   7.115   6.179
 2408W        W 3405   0.422   0.924   4.851
 2409W        W 3406   5.920   3.782   2.504
 2410W        W 3407   1.503   1.777   7.208
 2411W        W 3408   3.046   5.043   3.254
 2412W        W 3409   0.611   1.831   6.543
 2413W        W 3410   6.870   7.807   7.817
 2414W        W 3411   1.387   1.882   1.261
 2415W        W 3412   1.723   7.499   2.662
 2416W        W 3413   5.693   3.337   6.945
 2417W        W 3414   1.849   1.647   2.752
 2418W        W 3415   0.535   3.169   6.935
 2419W        W 3416   4.471   3.153   5.026
 2420W        W 3417   1.766   0.051   7.825
 2421W        W 3418   2.558   7.414   1.910
 2422W        W 3419   0.006   4.725   1.240
 2423W        W 3420   5.667   1.540   7.806
 2424W        W 3421   5.573   7.132   2.179
 2425W        W 3422   7.490   5.391   5.845
 2426W        W 3423   2.977   3.056   5.062
 2427W        W 3424   0.345   7.358   4.519
 2428W        W 3425   4.143   5.910   4.855
 2429W        W 3426   7.418   0.932   6.603
 2430W        W 3427   6.976   0.385   5.312
 2431W        W 3428   7.733   5.711   0.834
 2432W        W 3429   1.947   3.795   2.443
 2433W        W 3430   0.812   1.661   2.568
 2434W        W 3431   4.363   5.885   3.957
 2435W        W 3432   3.529   3.205   7.190
 2436W        W 3433   4.083   5.937   0.694
 2437W        W 3434   5.164   0.648   5.404
 2438W        W 3435   4.376   6.682   0.408
 2439W        W 3436   1.649   6.723   0.546
 2440W        W 3437   3.604   2.147   6.891
 2441W        W 3438   1.018   7.369   0.304
 2442W        W 3439   4.168   1.601   1.884
 2443W        W 3440   3.632   4.877   5.559
 2444W        W 3441   6.402   2.012   1.215
 2445W        W 3442   6.800   6.619   4.339
 2446W        W 3443   7.448   2.473   3.769
 2447W        W 3444   5.906   1.622   7.385
 2448W        W 3445   5.255   0.737   2.779
 2449W        W 3446   1.573   6.450   1.006
 2450W        W 3447   2.864   7.593   2.671
 2451W        W 3448   2.968   3.367   1.743
 2452W        W 3449   0.337   0.353   1.144
 2453W        W 3450   0.361   1.744   7.038
 2454W        W 3451   5.133   6.178   1.843
 2455W        W 3452   4.977   0.911   0.710
 2456W        W 3453   6.980   4.215   0.385
 2457W        W 3454   0.693   2.947   6.170
 2458W        W 3455   0.556   1.485   3.769
 2459W        W 3456   5.365   5.581   1.020
 2460W        W 3457   5.735   7.279   4.881
 2461W        W 3458   0.565   5.424   2.066
 2462W        W 3459   0.652   7.721   6.337
 2463W        W 3460   4.213   6.881   7.181
 2464W        W 3461   5.180   2.272   4.394
 2465W        W 3462   6.424   0.415   7.258
 2466W        W 3463   2.970   3.943   0.026
 2467W        W 3464   5.348   3.596   5.300
 2468W        W 3465   2.742   3.623   7.659
 2469W        W 3466   7.126   4.794   0.006
 2470W        W 3467   2.188   4.181   5.445
 2471W        W 3468   4.994   5.218   1.131
 2472W        W 3469   2.248   3.767   3.332
 2473W        W 3470   2.027   6.950   7.004
 2474W        W 3471   5.732   7.474   3.623
 2475W        W 3472   7.351   5.460   0.594
 2476W        W 3473   6.792   3.656   4.180
 2477W        W 3474   4.207   2.737   1.044
 2478W        W 3475   3.397   7.189   6.759
 2479W        W 3476   2.364   0.408   5.367
 2480W        W 3477   4.589   4.633   0.505
 2481W        W 3478   7.105   2.168   5.639
 2482W        W 3479   6.606   0.809   6.475
 2483W        W 3480   7.095   3.638   1.883
 2484W        W 3481   2.097   5.184   6.334
 2485W        W 3482   5.229   7.800   4.676
 2486W        W 3483   3.425   4.146   7.431
 2487W        W 3484   4.193   1.589   4.560
 2488W        W 3485   4.607   1.358   4.465
 2489W        W 3486   6.422   1.648   5.957
 2490W        W 3487   0.075   6.754   4.087
 2491W        W 3488   5.718   2.274   3.918
 2492W        W 3489   5.662   4.097   6.666
 2493W        W 3490   1.393   2.884   0.928
 2494W        W 3491   3.058   2.220   2.966
 2495W        W 3492   0.782   4.666   5.703
 2496W        W 3493   5.589   7.199   3.195
 2497W        W 3494   5.912   6.695   5.431
 2498W        W 3495   4.046   4.061   1.727
 2499W        W 3496   3.890   2.319   1.078
 2500W        W 3497   5.753   5.306   4.319
 2501W        W 3498   0.509   3.820   0.246
 2502W        W 3499   0.234   1.455   4.714
 2503W        W 3500   5.437   7.804   5.547
 2504W        W 3501   4.380   7.188   1.236
 2505W        W 3502   2.671   1.025   0.761
 2506W        W 3503   1.379   4.820   5.301
 2507W        W 3504   0.570   7.420   0.092
 2508W        W 3505   7.607   1.091   5.214
 2509W        W 3506   1.402   5.197   2.583
 2510W        W 3507   5.702   2.681   2.897
 2511W        W 3508   5.216   4.017   4.122
 2512W        W 3509   0.159   5.154   6.984
 2513W        W 3510   5.437   1.667   5.133
 2514W        W 3511   1.156   7.763   4.077
 2515W        W 3512   2.675   1.722   1.055
 2516W        W 3513   6.451   5.179   0.423
 2517W        W 3514   1.880   6.525   1.425
 2518W        W 3515   0.325   7.020   6.262
 2519W        W 3516   4.205   2.435   0.133
 2520W        W 3517   3.630   3.316   3.366
 2521W        W 3518   2.681   5.839   6.015
 2522W        W 3519   1.880   3.799   7.031
 2523W        W 3520   1.731   4.155   1.392
 2524W        W 3521   0.198   5.841   5.600
 2525W        W 3522   6.189   2.807   3.303
 2526W        W 3523   2.589   2.262   0.769
 2527W        W 3524   0.083   7.937   2.788
 2528W        W 3525   1.427   7.550   7.745
 2529W        W 3526   2.446   2.640   0.448
 2530W        W 3527   2.270   7.639   3.887
 2531W        W 3528   0.281   1.747   3.311
 2532W        W 3529   5.383   6.156   3.094
 2533W        W 3530   5.276   7.496   3.361
 2534W        W 3531   3.836   4.279   7.706
 2535W        W 3532   2.683   4.563   2.004
 2536W        W 3533   6.428   5.386   6.414
 2537W        W 3534   4.001   7.482   5.566
 2538W        W 3535   1.161   0.759   2.502
 2539W        W 3536   4.167   6.508   5.791
 2540W        W 3537   2.758   4.150   3.712
 2541W        W 3538   0.785   0.665   6.697
 2542W        W 3539   3.474   1.128   1.159
 2543W        W 3540   1.960   1.695   1.705
 2544W        W 3541   7.498   5.787   5.313
 2545W        W 3542   3.669   1.598   1.698
 2546W        W 3543   6.566   6.957   1.403
 2547W        W 3544   5.279   4.300   5.811
 2548W        W 3545   2.570   5.866   3.061
 2549W        W 3546   3.566   6.301   0.415
 2550W        W 3547   5.530   4.333   4.443
 2551W        W 3548   1.692   2.810   0.502
 2552W        W 3549   3.939   6.346   6.518
 2553W        W 3550   4.269   3.752   4.336
 2554W        W 3551   2.388   1.718   5.486
 2555W        W 3552   1.036   2.117   4.309
 2556W        W 3553   2.507   5.349   1.600
 2557W        W 3554   5.623   3.214   3.584
 2558W        W 3555   4.043   7.312   6.964
 2559W        W 3556   4.386   1.266   6.179
 2560W        W 3557   6.120   0.530   5.931
 2561W        W 3558   2.690   0.122   7.272
 2562W        W 3559   7.751   4.845   6.838
 2563W        W 3560   0.706   3.205   5.310
 2564W        W 3561   1.063   1.896   1.708
 2565W        W 3562   2.323   3.788   5.739
 2566W        W 3563   3.314   3.757   3.485
 2567W        W 3564   3.992   2.676   3.703
 2568W        W 3565   7.847   6.382   4.938
 2569W        W 3566   7.272   5.695   3.401
 2570W        W 3567   1.524   2.580   4.421
 2571W        W 3568   6.971   1.765   6.738
 2572W        W 3569   3.514   5.623   2.727
 2573W        W 3570   5.407   0.866   7.115
 2574W        W 3571   7.586   2.940   2.819
 2575W        W 3572   2.941   3.943   5.629
 2576W        W 3573   6.937   2.368   2.131
 2577W        W 3574   2.582   6.225   0.985
 2578W        W 3575   5.544   1.766   3.837
 2579W        W 3576   2.894   2.756   0.642
 2580W        W 3577   4.837   1.539   3.198
 2581W        W 3578   6.963   6.473   7.093
 2582W        W 3579   4.966   7.599   3.900
 2583W        W 3580   2.811   7.005   5.059
 2584W        W 3581   0.876   7.198   7.053
 2585W        W 3582   5.157   6.276   1.024
 2586W        W 3583   6.893   5.071   5.193
 2587W        W 3584   5.243   7.000   3.580
 2588W        W 3585   7.417   4.170   5.291
 2589W        W 3586   3.974   5.042   3.227
 2590W        W 3587   6.913   4.042   7.070
 2591W        W 3588   7.155   6.183   7.506
 2592W        W 3589   7.773   5.127   4.943
 2593W        W 3590   4.672   6.359   0.959
 2594W        W 3591   1.000   5.871   6.157
 2595W        W 3592   4.285   1.510   0.373
 2596W        W 3593   6.059   7.050   0.013
 2597W        W 3594   2.436   1.738   1.533
 2598W        W 3595   0.779   4.868   6.282
 2599W        W 3596   3.260   4.584   3.289
 2600W        W 3597   6.609   2.451   5.908
 2601W        W 3598   0.387   3.370   7.539
 2602W        W 3599   1.338   5.068   4.095
 2603W        W 3600   4.436   4.952   4.700
 2604W        W 3601   5.545   2.630   5.819
 2605W        W 3602   1.404   2.020   2.185
 2606W        W 3603   5.132   2.349   6.064
 2607W        W 3604   2.704   7.130   1.074
 2608W        W 3605   0.081   4.084   7.220
 2609W        W 3606   2.168   1.323   7.575
 2610W        W 3607   1.284   0.581   5.247
 2611W        W 3608   3.938   2.545   4.599
 2612W        W 3609   1.451   5.430   3.326
 2613W        W 3610   6.564   4.721   1.683
 2614W        W 3611   1.892   7.075   6.058
 2615W        W 3612   3.305   6.248   3.908
 2616W        W 3613   5.047   1.882   4.796
 2617W        W 3614   7.404   4.451   6.934
 2618W        W 3615   2.539   1.081   3.998
 2619W        W 3616   7.445   5.691   7.374
 2620W        W 3617   5.602   1.385   0.253
 2621W        W 3618   5.429   3.434   7.437
 2622W        W 3619   6.054   0.955   2.444
 2623W        W 3620   6.928   6.967   5.344
 2624W        W 3621   4.544   4.298   2.798
 2625W        W 3622   3.662   7.024   7.143
 2626W        W 3623   7.754   2.915   4.730
 2627W        W 3624   1.880   7.500   6.780
 2628W        W 3625   6.586   7.082   1.879
 2629W        W 3626   4.848   0.703   3.729
 2630W        W 3627   3.136   6.729   2.686
 2631W        W 3628   2.348   4.055   1.148
 2632W        W 3629   1.020   6.960   7.857
 2633W        W 3630   0.843   4.232   3.082
 2634W        W 3631   0.961   3.154   7.178
 2635W        W 3632   0.508   2.250   4.451
 2636W        W 3633   6.508   3.033   1.689
 2637W        W 3634   5.181   0.446   6.438
 2638W        W 3635   4.795   2.756   5.034
 2639W        W 3636   3.099   7.176   5.902
 2640W        W 3637   5.938   5.882   3.728
 2641W        W 3638   3.636   7.107   4.286
 2642W        W 3639   2.627   2.178   0.225
 2643W        W 3640   1.843   3.847   5.953
 2644W        W 3641   1.382   2.455   5.771
 2645W        W 3642   5.668   0.645   2.311
 2646W        W 3643   7.350   7.728   2.054
 2647W        W 3644   1.239   2.793   6.385
 2648W        W 3645   4.636   2.873   3.803
 2649W        W 3646   6.603   2.841   0.006
 2650W        W 3647   0.430   5.011   7.394
 2651W        W 3648   0.116   2.283   0.522
 2652W        W 3649   0.863   5.963   2.829
 2653W        W 3650   7.716   4.485   2.925
 2654W        W 3651   3.848   3.998   2.857
 2655W        W 3652   3.340   2.351   1.299
 2656W        W 3653   6.099   2.473   1.796
 2657W        W 3654   7.255   5.264   7.623
 2658W        W 3655   5.504   6.736   7.705
 2659W        W 3656   5.202   0.037   2.373
 2660W        W 3657   7.401   2.665   2.003
 2661W        W 3658   4.008   3.318   0.342
 2662W        W 3659   0.901   0.212   2.792
 2663W        W 3660   3.132   4.363   5.842
 2664W        W 3661   5.062   5.024   3.872
 2665W        W 3662   0.352   3.961   6.317
 2666W        W 3663   4.134   6.265   2.040
 2667W        W 3664   4.965   1.280   1.954
 2668W        W 3665   3.070   7.349   3.021
 2669W        W 3666   4.417   5.805   3.064
 2670W        W 3667   0.969   1.205   2.800
 2671W        W 3668   0.752   5.058   0.935
 2672W        W 3669   7.356   5.329   4.073
 2673W        W 3670   5.206   5.593   5.697
 2674W        W 3671   4.412   1.606   7.945
 2675W        W 3672   3.461   1.513   3.831
 2676W        W 3673   7.386   1.230   2.345
 2677W        W 3674   4.391   5.286   2.990
 2678W        W 3675   0.189   2.819   5.303
 2679W        W 3676   2.350   6.068   4.704
 2680W        W 3677   4.935   0.979   7.392
 2681W        W 3678   4.809   7.666   4.916
 2682W        W 3679   1.055   2.595   4.830
 2683W        W 3680   1.461   1.022   3.999
 2684W        W 3681   5.537   3.055   4.506
 2685W        W 3682   2.762   6.512   1.723
 2686W        W 3683   1.038   2.119   2.606
 2687W        W 3684   4.810   3.757   3.169
 2688W        W 3685   1.083   5.656   5.157
 2689W        W 3686   2.196   0.491   2.292
 2690W        W 3687   3.878   4.063   2.239
 2691W        W 3688   4.292   3.186   5.500
 2692W        W 3689   6.480   6.745   3.036
 2693W        W 3690   0.762   6.766   6.653
 2694W        W 3691   7.490   3.208   7.014
 2695W        W 3692   5.611   6.297   3.644
 2696W        W 3693   1.337   5.535   6.050
 2697W        W 3694   4.681   5.141   7.481
 2698W        W 3695   4.766   5.849   5.820
 2699W        W 3696   1.903   0.933   3.265
 2700W        W 3697   6.676   2.153   7.067
 2701W        W 3698   0.618   7.271   2.359
 2702W        W 3699   5.077   6.977   7.837
 2703W        W 3700   0.097   1.645   2.686
 2704W        W 3701   1.755   2.388   2.059
 2705W        W 3702   7.627   5.361   6.743
 2706W        W 3703   7.252   4.129   4.787
 2707W        W 3704   3.113   4.473   1.188
 2708W        W 3705   1.579   4.825   6.908
 2709W        W 3706   0.923   3.950   6.474
 2710W        W 3707   6.915   2.815   1.792
 2711W        W 3708   2.529   0.223   1.072
 2712W        W 3709   1.892   1.084   4.711
 2713W        W 3710   2.588   6.705   3.512
 2714W        W 3711   4.226   4.744   6.801
 2715W        W 3712   6.264   4.465   6.034
 2716W        W 3713   6.873   1.063   0.166
 2717W        W 3714   7.156   1.072   1.734
 2718W        W 3715   1.471   7.468   0.395
 2719W        W 3716   5.913   3.291   4.130
 2720W        W 3717   0.900   0.799   4.854
 2721W        W 3718   4.417   7.592   1.710
 2722W        W 3719   3.628   7.147   7.756
 2723W        W 3720   4.921   4.007   5.106
 2724W        W 3721   0.275   5.333   4.146
 2725W        W 3722   1.994   4.544   1.703
 2726W        W 3723   2.027   1.735   7.303
 2727W        W 3724   6.999   5.985   7.067
 2728W        W 3725   1.845   6.662   7.885
 2729W        W 3726   6.866   6.457   0.176
 2730W        W 3727   5.227   6.506   2.741
 2731W        W 3728   7.761   5.808   5.718
 2732W        W 3729   2.470   7.346   3.011
 2733W        W 3730   2.774   0.661   1.141
 2734W        W 3731   5.895   2.844   5.518
 2735W        W 3732   4.647   1.710   2.690
 2736W        W 3733   1.334   1.755   3.481
 2737W        W 3734   6.828   7.374   1.374
 2738W        W 3735   7.032   0.145   7.198
 2739W        W 3736   2.377   7.658   3.376
 2740W        W 3737   6.726   5.555   2.871
 2741W        W 3738   4.227   7.814   2.319
 2742W        W 3739   0.531   2.883   2.695
 2743W        W 3740   3.114   0.284   1.877
 2744W        W 3741   3.112   5.929   0.543
 2745W        W 3742   6.688   4.732   0.235
 2746W        W 3743   3.198   1.667   5.606
 2747W        W 3744   1.455   7.857   0.155
 2748W        W 3745   1.257   7.387   3.048
 2749W        W 3746   4.750   6.637   7.774
 2750W        W 3747   0.682   6.778   0.893
 2751W        W 3748   4.266   1.732   7.505
 2752W        W 3749   0.761   6.207   5.806
 2753W        W 3750   3.093   5.717   6.377
 2754W        W 3751   1.941   2.051   5.285
 2755W        W 3752   2.812   0.644   6.459
 2756W        W 3753   3.022   2.365   1.678
 2757W        W 3754   0.268   6.081   1.350
 2758W        W 3755   7.427   2.251   1.110
 2759W        W 3756   4.780   2.316   4.770
 2760W        W 3757   0.300   2.243   2.072
 2761W        W 3758   7.054   2.484   6.316
 2762W        W 3759   5.241   7.376   6.419
 2763W        W 3760   7.014   4.872   5.627
 2764W        W 3761   5.210   6.529   3.447
 2765W        W 3762   2.503   3.328   4.440
 2766W        W 3763   4.221   4.088   4.778
 2767W        W 3764   5.496   6.863   5.721
 2768W        W 3765   1.265   6.610   6.551
 2769W        W 3766   2.553   2.281   1.779
 2770W        W 3767   7.995   4.407   0.012
 2771W        W 3768   1.432   6.112   2.098
 2772W        W 3769   4.557   6.856   5.957
 2773W        W 3770   7.828   4.101   1.053
 2774W        W 3771   5.467   4.236   1.979
 2775W        W 3772   3.857   5.043   7.024
 2776W        W 3773   2.349   3.674   6.796
 2777W        W 3774   7.588   6.424   3.991
 2778W        W 3775   1.563   2.120   1.699
 2779W        W 3776   1.312   3.725   6.570
 2780W        W 3777   3.829   3.872   5.880
 2781W        W 3778   3.929   1.036   1.031
 2782W        W 3779   0.733   4.972   4.744
 2783W        W 3780   6.109   1.360   2.777
 2784W        W 3781   5.725   5.373   5.069
 2785W        W 3782   4.303   6.481   6.838
 2786W        W 3783   4.388   3.358   3.107
 2787W        W 3784   1.171   3.364   5.533
 2788W        W 3785   7.431   1.347   7.389
 2789W        W 3786   2.386   1.780   2.018
 2790W        W 3787   2.782   3.308   4.014
 2791W        W 3788   3.462   4.041   7.919
 2792W        W 3789   5.130   1.191   1.112
 2793W        W 3790   6.228   2.505   5.386
 2794W        W 3791   3.890   6.814   6.146
 2795W        W 3792   5.211   7.900   6.282
 2796W        W 3793   2.451   1.045   0.253
 2797W        W 3794   5.116   0.269   2.912
 2798W        W 3795   0.544   5.485   5.421
 2799W        W 3796   3.452   6.677   6.000
 2800W        W 3797   5.389   0.482   1.891
 2801W        W 3798   5.394   3.290   6.177
 2802W        W 3799   7.941   6.055   5.316
 2803W        W 3800   2.360   6.946   4.741
 2804W        W 3801   2.878   4.314   0.739
 2805W        W 3802   6.525   1.137   3.432
 2806W        W 3803   1.075   6.621   1.856
 2807W        W 3804   5.332   0.055   0.376
 2808W        W 3805   4.658   5.974   0.586
 2809W        W 3806   7.689   6.814   0.833
 2810W        W 3807   6.705   0.463   6.850
 2811W        W 3808   7.997   0.619   5.394
 2812W        W 3809   0.723   0.353   7.704
 2813W        W 3810   3.811   7.291   6.022
 2814W        W 3811   6.703   6.035   2.894
 2815W        W 3812   5.022   0.460   7.970
 2816W        W 3813   4.594   5.518   1.316
 2817W        W 3814   3.435   4.136   1.398
 2818W        W 3815   3.846   3.499   2.137
 2819W        W 3816   3.785   3.769   4.648
 2820W        W 3817   5.190   1.025   7.842
 2821W        W 3818   1.686   3.701   0.635
 2822W        W 3819   5.675   0.338   0.975
 2823W        W 3820   5.453   2.644   4.223
 2824W        W 3821   5.799   1.516   6.729
 2825W        W 3822   1.796   7.496   0.951
 2826W        W 3823   7.297   4.839   4.492
 2827W        W 3824   5.885   2.144   1.156
 2828W        W 3825   7.584   6.276   1.574
 2829W        W 3826   2.254   3.860   6.311
 2830W        W 3827   1.839   6.214   2.803
 2831W        W 3828   6.126   0.209   3.525
 2832W        W 3829   4.016   6.331   0.237
 2833W        W 3830   5.477   1.529   4.653
 2834W        W 3831   4.801   5.121   1.656
 2835W        W 3832   4.336   7.618   4.809
 2836W        W 3833   3.910   0.086   4.446
 2837W        W 3834   6.373   4.905   7.174
 2838W        W 3835   1.493   0.848   2.986
 2839W        W 3836   2.774   5.314   6.002
 2840W        W 3837   7.739   7.456   0.833
 2841W        W 3838   0.761   0.940   5.366
 2842W        W 3839   0.982   3.436   3.674
 2843W        W 3840   3.916   3.835   3.337
 2844W        W 3841   6.796   2.900   6.122
 2845W        W 3842   7.473   1.552   3.920
 2846W        W 3843   6.432   6.538   1.062
 2847W        W 3844   0.220   1.001   5.359
 2848W        W 3845   0.941   3.356   0.176
 2849W        W 3846   2.667   6.644   2.569
 2850W        W 3847   4.850   1.182   3.539
 2851W        W 3848   3.463   1.956   2.433
 2852W        W 3849   0.250   1.530   1.152
 2853W        W 3850   1.844   4.701   2.684
 2854W        W 3851   4.635   5.937   0.069
 2855W        W 3852   4.674   3.536   2.702
 2856W        W 3853   0.630   6.261   1.041
 2857W        W 3854   5.158   3.024   3.637
 2858W        W 3855   7.152   6.783   3.943
 2859W        W 3856   3.817   5.864   3.572
 2860W        W 3857   2.049   2.758   4.720
 2861W        W 3858   2.636   7.239   3.517
 2862W        W 3859   5.943   0.509   3.955
 2863W        W 3860   0.722   6.187   4.321
 2864W        W 3861   7.444   6.524   6.521
 2865W        W 3862   2.121   2.068   2.654
 2866W        W 3863   2.067   6.578   5.473
 2867W        W 3864   2.512   7.486   5.134
 2868W        W 3865   0.387   2.810   1.919
 2869W        W 3866   7.310   4.114   7.364
 2870W        W 3867   5.206   1.422   7.569
 2871W        W 3868   6.324   0.187   4.276
 2872W        W 3869   1.866   7.262   3.833
 2873W        W 3870   4.173   2.329   6.114
 2874W        W 3871   6.491   6.887   2.316
 2875W        W 3872   7.849   5.118   0.833
 2876W        W 3873   2.445   7.618   5.628
 2877W        W 3874   4.318   3.264   4.015
 2878W        W 3875   6.852   3.196   4.480
 2879W        W 3876   6.506   5.397   6.891
 2880W        W 3877   7.929   3.969   3.127
 2881W        W 3878   2.589   0.126   4.024
 2882W        W 3879   7.194   2.185   2.763
 2883W        W 3880   2.995   7.608   3.578
 2884W        W 3881   0.609   2.654   3.781
 2885W        W 3882   5.449   3.143   4.019
 2886W        W 3883   3.265   4.502   4.341
 2887W        W 3884   5.207   5.080   7.280
 2888W        W 3885   3.690   2.010   3.009
 2889W        W 3886   2.337   2.456   4.426
 2890W        W 3887   4.266   5.567   3.487
 2891W        W 3888   7.176   4.189   5.776
 2892W        W 3889   2.282   7.631   6.474
 2893W        W 3890   6.912   6.537   1.504
 2894W        W 3891   3.824   4.257   4.527
 2895W        W 3892   4.083   6.909   0.739
 2896W        W 3893   6.551   6.337   3.385
 2897W        W 3894   4.449   3.025   0.132
 2898W        W 3895   2.389   6.198   5.755
 2899W        W 3896   7.035   2.623   3.040
 2900W        W 3897   7.060   0.992   6.108
 2901W        W 3898   7.997   7.211   6.058
 2902W        W 3899   4.297   1.238   7.592
 2903W        W 3900   5.536   1.543   0.854
 2904W        W 3901   7.716   4.618   6.419
 2905W        W 3902   0.216   2.031   1.173
 2906W        W 3903   1.534   6.012   6.275
 2907W        W 3904   0.617   3.578   1.046
 2908W        W 3905   5.772   2.082   7.512
 2909W        W 3906   3.922   3.847   5.160
 2910W        W 3907   6.859   6.702   3.503
 2911W        W 3908   4.176   1.545   6.597
 2912W        W 3909   3.814   1.110   4.758
 2913W        W 3910   7.371   1.735   2.626
 2914W        W 3911   7.463   6.667   4.408
 2915W        W 3912   1.979   2.925   5.196
 2916W        W 3913   5.512   3.226   5.652
 2917W        W 3914   3.567   2.859   4.372
 2918W        W 3915   4.035   6.915   6.663
 2919W        W 3916   0.837   1.481   6.899
 2920W        W 3917   4.079   2.097   6.622
 2921W        W 3918   3.885   4.587   3.527
 2922W        W 3919   1.239   6.828   0.948
 2923W        W 3920   5.523   0.151   3.237
 2924W        W 3921   3.007   3.151   4.463
 2925W        W 3922   2.301   0.606   3.159
 2926W        W 3923   2.064   7.514   6.003
 2927W        W 3924   6.560   1.717   6.454
 2928W        W 3925   0.113   2.912   1.570
 2929W        W 3926   6.683   3.322   2.064
 2930W        W 3927   4.895   6.566   0.445
 2931W        W 3928   4.180   1.537   4.027
 2932W        W 3929   0.468   0.338   3.131
 2933W        W 3930   1.134   0.975   3.303
 2934W        W 3931   2.335   1.946   4.406
 2935W        W 3932   3.106   0.945   3.996
 2936W        W 3933   6.253   7.750   4.413
 2937W        W 3934   6.458   6.458   7.333
 2938W        W 3935   5.521   0.287   5.946
 2939W        W 3936   1.186   5.948   7.210
 2940W        W 3937   4.648   5.509   2.021
 2941W        W 3938   3.393   6.711   5.111
 2942W        W 3939   1.514   2.009   6.748
 2943W        W 3940   5.439   6.812   5.209
 2944W        W 3941   0.556   5.789   2.392
 2945W        W 3942   6.272   7.621   7.019
 2946W        W 3943   4.463   2.393   4.383
 2947W        W 3944   2.908   0.750   2.849
 2948W        W 3945   6.942   4.132   2.518
 2949W        W 3946   6.941   1.260   5.189
 2950W        W 3947   0.193   4.663   2.090
 2951W        W 3948   6.306   3.879   4.150
 2952W        W 3949   4.621   4.786   3.974
 2953W        W 3950   7.592   0.064   3.783
 2954W        W 3951   5.298   5.955   6.066
 2955W        W 3952   6.875   7.217   4.084
 2956W        W 3953   2.720   4.298   5.305
 2957W        W 3954   3.233   1.042   4.825
 2958W        W 3955   0.961   5.005   7.124
 2959W        W 3956   7.381   6.703   1.307
 2960W        W 3957   6.790   0.918   3.051
 2961W        W 3958   7.875   5.553   3.502
 2962W        W 3959   7.847   5.814   1.770
 2963W        W 3960   4.836   0.853   6.407
 2964W        W 3961   1.339   0.179   6.485
 2965W        W 3962   7.211   5.433   1.623
 2966W        W 3963   3.147   5.745   5.887
 2967W        W 3964   1.844   2.214   4.828
 2968W        W 3965   3.966   4.713   7.561
 2969W        W 3966   3.231   0.502   3.725
 2970W        W 3967   1.681   2.878   2.678
 2971W        W 3968   3.556   5.427   6.785
 2972W        W 3969   7.958   3.791   7.836
 2973W        W 3970   3.629   0.469   7.455
 2974W        W 3971   1.492   4.113   0.441
 2975W        W 3972   4.536   6.672   1.547
 2976W        W 3973   5.346   3.719   1.866
 2977W        W 3974   6.950   4.984   4.108
 2978W        W 3975   7.187   1.433   0.056
 2979W        W 3976   2.957   1.383   7.034
 2980W        W 3977   7.131   6.392   4.615
 2981W        W 3978   6.548   6.166   1.709
 2982W        W 3979   0.735   3.389   2.605
 2983W        W 3980   6.677   0.579   0.207
 2984W        W 3981   7.471   6.588   2.948
 2985W        W 3982   6.740   5.774   6.680
 2986W        W 3983   1.848   4.244   7.305
 2987W        W 3984   7.347   5.199   5.365
 2988W        W 3985   6.027   5.222   5.402
 2989W        W 3986   0.199   4.902   2.766
 2990W        W 3987   0.103   1.926   5.540
 2991W        W 3988   3.458   1.292   6.421
 2992W        W 3989   4.924   7.144   5.798
 2993W        W 3990   1.753   3.227   0.841
 2994W        W 3991   0.011   0.347   6.489
 2995W        W 3992   4.403   5.594   6.848
 2996W        W 3993   0.038   1.318   7.673
 2997W        W 3994   1.552   3.619   4.057
 2998W        W 3995   3.051   6.778   6.892
 2999W        W 3996   1.999   6.453   4.619
 3000W        W 3997   4.345   6.035   1.101
 3001W        W 3998   2.213   7.194   0.983
 3002W        W 3999   6.146   2.516   3.667
 3003W        W 4000   5.005   1.973   5.732
 3004W        W 4001   0.570   4.590   2.863
 3005W        W 4002   3.708   5.585   0.030
 3006W        W 4003   5.793   5.722   6.116
 3007W        W 4004   7.382   5.652   7.936
 3008W        W 4005   4.357   3.115   6.390
 3009W        W 4006   1.294   7.133   2.618
 3010W        W 4007   7.555   5.064   6.251
 3011W        W 4008   5.662   0.735   5.122
 3012W        W 4009   6.843   6.020   6.234
 3013W        W 4010   3.298   2.570   5.788
 3014W        W 4011   4.943   2.315   2.041
 3015W        W 4012   4.334   2.648   4.820
 3016W        W 4013   6.690   1.098   1.598
 3017W        W 4014   3.062   3.244   3.540
 3018W        W 4015   0.854   0.066   3.326
 3019W        W 4016   0.322   1.238   0.690
 3020W        W 4017   0.511   5.687   3.208
 3021W        W 4018   1.297   7.142   5.489
 3022W        W 4019   7.196   4.701   4.959
 3023W        W 4020   4.532   1.628   5.858
 3024W        W 4021   7.395   1.030   4.715
 3025W        W 4022   7.669   7.724   6.275
 3026W        W 4023   0.802   6.497   3.760
 3027W        W 4024   6.560   6.379   6.363
 3028W        W 4025   3.797   1.379   0.326
 3029W        W 4026   6.456   0.607   3.388
 3030W        W 4027   3.737   2.173   6.263
 3031W        W 4028   7.161   5.829   5.822
 3032W        W 4029   3.023   0.525   4.222
 3033W        W 4030   0.586   1.288   5.096
 3034W        W 4031   7.395   2.613   2.506
 3035W        W 4032   3.339   1.113   0.121
 3036W        W 4033   3.579   7.078   5.626
 3037W        W 4034   1.069   6.801   5.081
 3038W        W 4035   4.395   6.037   6.675
 3039W        W 4036   7.734   4.078   4.226
 3040W        W 4037   7.936   0.045   3.374
 3041W        W 4038   1.687   7.264   1.384
 3042W        W 4039   6.117   7.001   4.924
 3043W        W 4040   5.654   5.918   6.928
 3044W        W 4041   3.329   4.732   1.585
 3045W        W 4042   5.061   1.881   6.200
 3046W        W 4043   6.287   3.901   7.209
 3047W        W 4044   5.218   7.600   6.861
 3048W        W 4045   6.414   6.968   6.282
 3049W        W 4046   6.056   3.713   0.443
 3050W        W 4047   2.456   2.126   3.058
 3051W        W 4048   4.535   3.129   1.100
 3052W        W 4049   6.696   7.099   4.926
 3053W        W 4050   4.623   3.627   1.139
 3054W        W 4051   5.945   4.666   5.380
 3055W        W 4052   1.918   2.978   6.992
 3056W        W 4053   6.150   2.592   5.916
 3057W        W 4054   5.071   7.037   0.369
 3058W        W 4055   1.485   7.108   5.036
 3059W        W 4056   7.614   2.536   4.288
 3060W        W 4057   2.879   2.641   1.273
 3061W        W 4058   5.584   6.238   2.162
 3062W        W 4059   3.604   3.791   1.787
 3063W        W 4060   5.474   0.937   0.396
 3064W        W 4061   4.891   3.539   4.947
 3065W        W 4062   2.626   5.089   2.396
 3066W        W 4063   5.991   7.197   0.743
 3067W        W 4064   2.566   3.027   0.228
 3068W        W 4065   1.639   2.667   7.350
 3069W        W 4066   6.757   7.780   4.432
 3070W        W 4067   7.366   2.889   4.010
 3071W        W 4068   0.833   4.579   5.175
 3072W        W 4069   0.157   5.371   4.594
 3073W        W 4070   0.620   4.815   3.816
 3074W        W 4071   7.425   1.828   6.828
 3075W        W 4072   5.314   5.322   3.530
 3076W        W 4073   3.620   1.601   1.189
 3077W        W 4074   3.005   1.747   0.189
 3078W        W 4075   6.544   4.202   4.525
 3079W        W 4076   4.818   4.703   6.672
 3080W        W 4077   2.837   2.853   1.729
 3081W        W 4078   6.252   2.164   6.140
 3082W        W 4079   5.157   2.816   2.233
 3083W        W 4080   1.168   2.728   7.465
 3084W        W 4081   2.291   0.105   0.592
 3085W        W 4082   5.155   7.009   2.498
 3086W        W 4083   0.816   2.248   7.328
 3087W        W 4084   5.689   2.749   3.395
 3088W        W 4085   6.030   7.377   6.199
 3089W        W 4086   4.826   7.426   5.397
 3090W        W 4087   3.940   7.340   2.486
 3091W        W 4088   3.271   4.436   5.319
 3092W        W 4089   5.992   7.705   1.618
 3093W        W 4090   6.305   3.372   2.875
 3094W        W 4091   4.055   2.844   4.184
 3095W        W 4092   4.697   4.268   4.767
 3096W        W 4093   7.077   2.092   3.833
 3097W        W 4094   4.392   3.644   4.943
 3098W        W 4095   7.484   5.038   0.358
 3099W        W 4096   2.018   1.156   6.546
 3100W        W 4097   6.581   4.574   5.619
 3101W        W 4098   2.468   4.585   7.133
 3102W        W 4099   6.267   2.332   7.882
 3103W        W 4100   1.967   3.374   7.300
 3104W        W 4101   2.384   6.654   7.205
 3105W        W 4102   2.490   3.171   5.611
 3106W        W 4103   7.359   0.249   4.208
 3107W        W 4104   6.546   1.892   0.675
 3108W        W 4105   1.656   6.815   3.614
 3109W        W 4106   1.911   3.441   6.744
 3110W        W 4107   3.941   3.366   5.051
 3111W        W 4108   6.840   0.130   1.750
 3112W        W 4109   7.356   0.399   6.885
 3113W        W 4110   3.847   1.849   3.887
 3114W        W 4111   4.835   6.747   6.495
 3115W        W 4112   1.709   4.198   2.667
 3116W        W 4113   2.627   0.199   2.204
 3117W        W 4114   4.598   7.895   6.204
 3118W        W 4115   6.237   5.294   4.611
 3119W        W 4116   6.464   1.507   1.426
 3120W        W 4117   0.529   2.351   0.221
 3121W        W 4118   1.865   7.054   5.545
 3122W        W 4119   2.052   2.898   0.179
 3123W        W 4120   4.787   4.708   5.009
 3124W        W 4121   0.538   6.621   2.092
 3125W        W 4122   2.206   2.504   5.098
 3126W        W 4123   0.199   2.664   2.385
 3127W        W 4124   2.388   2.894   3.322
 3128W        W 4125   4.762   3.283   6.702
 3129W        W 4126   0.011   6.640   2.133
 3130W        W 4127   0.424   4.086   2.870
 3131W        W 4128   4.348   6.071   2.605
 3132W        W 4129   2.374   0.800   3.608
 3133W        W 4130   0.866   5.105   7.626
 3134W        W 4131   7.648   3.556   7.534
 3135W        W 4132   4.329   6.924   2.543
 3136W        W 4133   0.096   2.253   4.014
 3137W        W 4134   4.731   5.343   5.846
 3138W        W 4135   0.201   6.891   4.609
 3139W        W 4136   7.823   6.377   6.175
 3140W        W 4137   7.460   3.734   4.470
 3141W        W 4138   2.260   6.919   2.093
 3142W        W 4139   4.495   2.886   6.830
 3143W        W 4140   7.342   1.875   1.439
 3144W        W 4141   5.124   1.674   4.270
 3145W        W 4142   2.340   2.748   1.443
 3146W        W 4143   4.225   0.833   5.986
 3147W        W 4144   7.116   3.414   2.333
 3148W        W 4145   1.705   6.551   6.245
 3149W        W 4146   3.506   3.556   3.897
 3150W        W 4147   3.798   1.987   2.012
 3151W        W 4148   2.484   0.855   1.479
 3152W        W 4149   2.493   0.891   5.441
 3153W        W 4150   1.903   4.814   6.494
 3154W        W 4151   1.995   1.598   5.111
 3155W        W 4152   5.116   1.352   2.599
 3156W        W 4153   7.211   6.690   6.082
 3157W        W 4154   7.024   6.258   6.679
 3158W        W 4155   5.457   1.338   7.069
 3159W        W 4156   6.236   3.846   4.679
 3160W        W 4157   3.320   5.956   4.833
 3161W        W 4158   5.305   1.714   6.755
 3162W        W 4159   5.463   5.398   0.493
 3163W        W 4160   6.219   6.928   7.135
 3164W        W 4161   6.839   7.016   2.689
 3165W        W 4162   0.704   3.334   5.832
 3166W        W 4163   7.118   1.325   4.286
 3167W        W 4164   6.967   3.881   2.949
 3168W        W 4165   7.328   3.863   2.312
 3169W        W 4166   3.482   7.576   5.630
 3170W        W 4167   0.932   1.406   5.423
 3171W        W 4168   2.476   6.900   6.206
 3172W        W 4169   6.257   4.506   7.463
 3173W        W 4170   3.410   7.503   3.382
 3174W        W 4171   1.736   3.761   4.586
 3175W        W 4172   1.303   6.840   4.637
 3176W        W 4173   7.561   1.375   5.985
 3177W        W 4174   5.838   1.012   6.843
 3178W        W 4175   4.542   6.351   3.727
 3179W        W 4176   0.253   3.344   5.539
 3180W        W 4177   5.395   5.350   4.708
 3181W        W 4178   1.109   6.546   2.791
 3182W        W 4179   2.838   6.456   7.571
 3183W        W 4180   7.641   0.391   2.676
 3184W        W 4181   2.032   4.469   1.172
 3185W        W 4182   5.249   6.548   4.832
 3186W        W 4183   0.823   2.017   2.145
 3187W        W 4184   2.240   0.195   2.898
 3188W        W 4185   6.921   1.503   6.044
 3189W        W 4186   2.090   6.952   1.632
 3190W        W 4187   0.868   6.791   2.487
 3191W        W 4188   6.345   4.669   4.617
 3192W        W 4189   3.035   5.330   1.266
 3193W        W 4190   3.309   3.119   2.635
 3194W        W 4191   7.962   3.768   6.359
 3195W        W 4192   5.491   2.630   6.781
 3196W        W 4193   1.843   4.437   7.851
 3197W        W 4194   6.792   4.912   4.668
 3198W        W 4195   2.142   2.488   6.770
 3199W        W 4196   1.977   7.542   3.071
 3200W        W 4197   7.326   6.667   3.432
 3201W        W 4198   4.433   2.152   2.679
 3202W        W 4199   3.612   2.999   2.269
 3203W        W 4200   1.716   3.265   0.226
 3204W        W 4201   6.862   1.258   6.570
 3205W        W 4202   3.182   2.071   6.049
 3206W        W 4203   1.807   0.803   4.299
 3207W        W 4204   5.569   3.620   3.944
 3208W        W 4205   4.315   4.419   0.137
 3209W        W 4206   7.057   2.002   0.095
 3210W        W 4207   4.712   3.321   3.477
 3211W        W 4208   3.079   5.876   1.077
 3212W        W 4209   6.481   4.268   0.208
 3213W        W 4210   6.110   6.320   6.552
 3214W        W 4211   3.480   3.995   5.478
 3215W        W 4212   1.253   6.368   6.075
 3216W        W 4213   4.509   2.980   2.716
 3217W        W 4214   7.290   4.529   1.008
 3218W        W 4215   0.824   3.061   4.860
 3219W        W 4216   2.838   2.910   7.734
 3220W        W 4217   5.302   4.533   3.096
 3221W        W 4218   5.460   7.517   2.475
 3222W        W 4219   7.332   1.354   6.404
 3223W        W 4220   3.270   3.087   4.014
 3224W        W 4221   5.425   1.206   4.254
 3225W        W 4222   7.820   1.633   1.681
 3226W        W 4223   3.135   4.905   0.947
 3227W        W 4224   1.355   5.842   7.738
 3228W        W 4225   5.179   2.493   0.708
 3229W        W 4226   4.732   0.192   6.578
 3230W        W 4227   6.118   1.947   1.675
 3231W        W 4228   5.865   0.965   1.984
   8.00000   8.00000   8.00000
