Martini system from ../2_Creating_coordinates/TYR-GLU-TYR_aa.pdb
 4207
    1TYR     BB    1   2.979   4.254   4.780
    1TYR    SC1    2   3.218   4.187   4.967
    1TYR    SC2    3   3.161   4.341   5.143
    1TYR    SC3    4   3.231   4.181   5.311
    2GLU     BB    5   2.776   4.245   5.097
    2GLU    SC1    6   2.415   4.306   4.910
    3TYR     BB    7   2.697   4.451   5.331
    3TYR    SC1    8   2.869   4.360   5.548
    3TYR    SC2    9   2.827   4.502   5.738
    3TYR    SC3   10   2.840   4.311   5.888
    1TYR     BB   11   2.105   6.269   3.504
    1TYR    SC1   12   2.393   6.327   3.606
    1TYR    SC2   13   2.353   6.268   3.837
    1TYR    SC3   14   2.574   6.167   3.852
    2GLU     BB   15   2.132   5.959   3.715
    2GLU    SC1   16   1.767   5.807   3.601
    3TYR     BB   17   2.077   5.878   4.022
    3TYR    SC1   18   2.348   5.861   4.126
    3TYR    SC2   19   2.333   5.801   4.359
    3TYR    SC3   20   2.524   5.652   4.336
    1TYR     BB   21   0.355   3.078   5.463
    1TYR    SC1   22   0.216   3.135   5.191
    1TYR    SC2   23   0.039   3.273   5.278
    1TYR    SC3   24   0.052   3.419   5.084
    2GLU     BB   25   0.301   3.445   5.526
    2GLU    SC1   26   0.497   3.449   5.887
    3TYR     BB   27   0.066   3.631   5.645
    3TYR    SC1   28  -0.040   3.751   5.402
    3TYR    SC2   29  -0.221   3.897   5.465
    3TYR    SC3   30  -0.150   4.062   5.302
    1TYR     BB   31   5.754   6.263   1.442
    1TYR    SC1   32   5.621   6.473   1.256
    1TYR    SC2   33   5.756   6.661   1.323
    1TYR    SC3   34   5.761   6.743   1.094
    2GLU     BB   35   6.077   6.422   1.328
    2GLU    SC1   36   6.319   6.160   1.531
    3TYR     BB   37   6.260   6.672   1.418
    3TYR    SC1   38   6.198   6.866   1.210
    3TYR    SC2   39   6.325   7.065   1.256
    3TYR    SC3   40   6.371   7.094   1.020
    1TYR     BB   41   5.106   0.275   1.980
    1TYR    SC1   42   5.177   0.090   2.221
    1TYR    SC2   43   5.385   0.198   2.279
    1TYR    SC3   44   5.338   0.167   2.515
    2GLU     BB   45   5.214   0.553   2.211
    2GLU    SC1   46   5.117   0.855   1.949
    3TYR     BB   47   5.491   0.700   2.288
    3TYR    SC1   48   5.544   0.586   2.551
    3TYR    SC2   49   5.750   0.682   2.631
    3TYR    SC3   50   5.658   0.700   2.855
    1TYR     BB   51   5.705   0.906   6.143
    1TYR    SC1   52   5.770   1.012   5.857
    1TYR    SC2   53   5.984   1.109   5.910
    1TYR    SC3   54   6.073   1.037   5.696
    2GLU     BB   55   6.065   0.792   6.141
    2GLU    SC1   56   6.045   0.606   6.506
    3TYR     BB   57   6.352   0.920   6.213
    3TYR    SC1   58   6.462   0.968   5.948
    3TYR    SC2   59   6.680   1.065   5.976
    3TYR    SC3   60   6.767   0.932   5.793
    1TYR     BB   61   1.443   4.467   2.176
    1TYR    SC1   62   1.567   4.456   2.461
    1TYR    SC2   63   1.780   4.366   2.396
    1TYR    SC3   64   1.892   4.505   2.561
    2GLU     BB   65   1.779   4.606   2.077
    2GLU    SC1   66   1.676   4.674   1.685
    3TYR     BB   67   2.066   4.488   1.988
    3TYR    SC1   68   2.222   4.530   2.230
    3TYR    SC2   69   2.445   4.447   2.187
    3TYR    SC3   70   2.541   4.635   2.308
    1TYR     BB   71   1.449   7.170   1.956
    1TYR    SC1   72   1.700   7.336   1.877
    1TYR    SC2   73   1.693   7.288   1.641
    1TYR    SC3   74   1.762   7.515   1.590
    2GLU     BB   75   1.295   7.327   1.651
    2GLU    SC1   76   0.924   7.161   1.709
    3TYR     BB   77   1.282   7.264   1.335
    3TYR    SC1   78   1.468   7.461   1.229
    3TYR    SC2   79   1.476   7.433   0.990
    3TYR    SC3   80   1.482   7.674   0.959
    1TYR     BB   81   1.745   1.557   3.844
    1TYR    SC1   82   1.459   1.479   3.940
    1TYR    SC2   83   1.528   1.332   4.118
    1TYR    SC3   84   1.346   1.412   4.257
    2GLU     BB   85   1.818   1.590   4.212
    2GLU    SC1   86   2.203   1.725   4.159
    3TYR     BB   87   1.912   1.396   4.451
    3TYR    SC1   88   1.663   1.361   4.598
    3TYR    SC2   89   1.709   1.216   4.785
    3TYR    SC3   90   1.566   1.351   4.928
    1TYR     BB   91   2.660   4.009   0.753
    1TYR    SC1   92   2.377   3.954   0.636
    1TYR    SC2   93   2.427   4.013   0.409
    1TYR    SC3   94   2.287   3.833   0.327
    2GLU     BB   95   2.780   3.829   0.444
    2GLU    SC1   96   3.177   3.841   0.549
    3TYR     BB   97   2.851   3.906   0.140
    3TYR    SC1   98   2.619   3.800  -0.001
    3TYR    SC2   99   2.649   3.847  -0.236
    3TYR    SC3  100   2.559   3.629  -0.294
    1TYR     BB  101   4.754   6.542   3.953
    1TYR    SC1  102   4.538   6.763   3.915
    1TYR    SC2  103   4.432   6.737   4.129
    1TYR    SC3  104   4.401   6.977   4.146
    2GLU     BB  105   4.793   6.692   4.296
    2GLU    SC1  106   5.104   6.448   4.406
    3TYR     BB  107   4.654   6.657   4.585
    3TYR    SC1  108   4.491   6.898   4.599
    3TYR    SC2  109   4.375   6.894   4.810
    3TYR    SC3  110   4.410   7.133   4.837
    1TYR     BB  111   3.961   7.369   1.756
    1TYR    SC1  112   3.689   7.391   1.905
    1TYR    SC2  113   3.709   7.186   2.031
    1TYR    SC3  114   3.605   7.291   2.223
    2GLU     BB  115   4.095   7.269   2.093
    2GLU    SC1  116   4.486   7.246   1.971
    3TYR     BB  117   4.125   6.996   2.262
    3TYR    SC1  118   3.912   7.026   2.459
    3TYR    SC2  119   3.914   6.831   2.599
    3TYR    SC3  120   3.870   6.967   2.795
    1TYR     BB  121   4.816   0.802  -0.083
    1TYR    SC1  122   4.616   0.751   0.149
    1TYR    SC2  123   4.627   0.511   0.144
    1TYR    SC3  124   4.614   0.502   0.386
    2GLU     BB  125   5.021   0.534   0.086
    2GLU    SC1  126   5.340   0.567  -0.172
    3TYR     BB  127   5.039   0.213   0.079
    3TYR    SC1  128   4.910   0.143   0.330
    3TYR    SC2  129   4.911  -0.097   0.348
    3TYR    SC3  130   4.962  -0.083   0.585
    1TYR     BB  131   0.186   1.342   2.658
    1TYR    SC1  132   0.305   1.630   2.659
    1TYR    SC2  133   0.478   1.589   2.498
    1TYR    SC3  134   0.444   1.810   2.402
    2GLU     BB  135   0.222   1.369   2.284
    2GLU    SC1  136   0.048   1.006   2.205
    3TYR     BB  137   0.453   1.314   2.066
    3TYR    SC1  138   0.536   1.585   2.001
    3TYR    SC2  139   0.712   1.570   1.837
    3TYR    SC3  140   0.621   1.761   1.717
    1TYR     BB  141   7.703   1.414   6.550
    1TYR    SC1  142   7.545   1.151   6.500
    1TYR    SC2  143   7.378   1.245   6.354
    1TYR    SC3  144   7.380   1.045   6.217
    2GLU     BB  145   7.662   1.466   6.179
    2GLU    SC1  146   7.886   1.810   6.166
    3TYR     BB  147   7.440   1.594   5.983
    3TYR    SC1  148   7.319   1.354   5.870
    3TYR    SC2  149   7.146   1.426   5.718
    3TYR    SC3  150   7.209   1.251   5.561
    1TYR     BB  151   6.798   4.461   7.192
    1TYR    SC1  152   6.758   4.197   7.032
    1TYR    SC2  153   6.979   4.108   7.067
    1TYR    SC3  154   6.889   3.884   7.089
    2GLU     BB  155   6.965   4.237   7.445
    2GLU    SC1  156   7.028   4.536   7.720
    3TYR     BB  157   7.261   4.119   7.495
    3TYR    SC1  158   7.227   3.843   7.410
    3TYR    SC2  159   7.440   3.732   7.438
    3TYR    SC3  160   7.328   3.533   7.520
    1TYR     BB  161   6.101   4.490   2.666
    1TYR    SC1  162   6.343   4.668   2.749
    1TYR    SC2  163   6.378   4.569   2.966
    1TYR    SC3  164   6.618   4.588   2.939
    2GLU     BB  165   6.308   4.209   2.808
    2GLU    SC1  166   6.042   3.914   2.703
    3TYR     BB  167   6.354   4.074   3.097
    3TYR    SC1  168   6.616   4.179   3.168
    3TYR    SC2  169   6.673   4.091   3.385
    3TYR    SC3  170   6.903   4.059   3.314
    1TYR     BB  171   2.826   2.125   1.522
    1TYR    SC1  172   2.668   2.384   1.449
    1TYR    SC2  173   2.451   2.305   1.517
    1TYR    SC3  174   2.395   2.525   1.603
    2GLU     BB  175   2.618   2.134   1.837
    2GLU    SC1  176   2.802   1.810   2.009
    3TYR     BB  177   2.328   2.028   1.930
    3TYR    SC1  178   2.175   2.275   1.932
    3TYR    SC2  179   1.950   2.221   2.000
    3TYR    SC3  180   1.939   2.422   2.135
    1TYR     BB  181   4.109   1.318   1.991
    1TYR    SC1  182   4.194   1.231   2.278
    1TYR    SC2  183   4.422   1.176   2.225
    1TYR    SC3  184   4.496   1.266   2.438
    2GLU     BB  185   4.441   1.498   1.990
    2GLU    SC1  186   4.385   1.672   1.622
    3TYR     BB  187   4.746   1.427   1.918
    3TYR    SC1  188   4.864   1.405   2.183
    3TYR    SC2  189   5.097   1.350   2.155
    3TYR    SC3  190   5.157   1.500   2.336
    1TYR     BB  191   7.538   5.555   2.546
    1TYR    SC1  192   7.401   5.296   2.650
    1TYR    SC2  193   7.294   5.394   2.841
    1TYR    SC3  194   7.097   5.255   2.806
    2GLU     BB  195   7.205   5.715   2.620
    2GLU    SC1  196   7.310   6.084   2.474
    3TYR     BB  197   7.060   5.850   2.875
    3TYR    SC1  198   6.872   5.640   2.951
    3TYR    SC2  199   6.750   5.719   3.143
    3TYR    SC3  200   6.545   5.622   3.055
    1TYR     BB  201   2.161   5.155   7.420
    1TYR    SC1  202   2.220   5.115   7.723
    1TYR    SC2  203   1.999   5.045   7.786
    1TYR    SC3  204   2.091   4.883   7.942
    2GLU     BB  205   1.976   4.828   7.451
    2GLU    SC1  206   1.883   4.802   7.052
    3TYR     BB  207   1.680   4.733   7.534
    3TYR    SC1  208   1.726   4.626   7.801
    3TYR    SC2  209   1.515   4.547   7.885
    3TYR    SC3  210   1.623   4.353   7.984
    1TYR     BB  211   2.537   1.887   6.512
    1TYR    SC1  212   2.345   1.692   6.660
    1TYR    SC2  213   2.168   1.697   6.497
    1TYR    SC3  214   2.126   1.460   6.532
    2GLU     BB  215   2.442   1.687   6.206
    2GLU    SC1  216   2.696   1.887   5.953
    3TYR     BB  217   2.207   1.694   5.986
    3TYR    SC1  218   2.043   1.468   6.071
    3TYR    SC2  219   1.857   1.452   5.919
    3TYR    SC3  220   1.873   1.210   5.919
    1TYR     BB  221   0.969   2.409   5.098
    1TYR    SC1  222   1.207   2.209   5.100
    1TYR    SC2  223   1.155   2.100   4.892
    1TYR    SC3  224   1.391   2.085   4.838
    2GLU     BB  225   1.060   2.455   4.735
    2GLU    SC1  226   0.781   2.748   4.665
    3TYR     BB  227   0.990   2.312   4.455
    3TYR    SC1  228   1.236   2.165   4.403
    3TYR    SC2  229   1.207   2.047   4.195
    3TYR    SC3  230   1.436   2.098   4.131
    1TYR     BB  231   7.983   6.106   1.105
    1TYR    SC1  232   7.708   5.969   1.154
    1TYR    SC2  233   7.763   5.758   1.053
    1TYR    SC3  234   7.637   5.640   1.223
    2GLU     BB  235   8.125   5.777   1.221
    2GLU    SC1  236   8.517   5.900   1.205
    3TYR     BB  237   8.202   5.494   1.086
    3TYR    SC1  238   7.982   5.326   1.177
    3TYR    SC2  239   8.017   5.105   1.087
    3TYR    SC3  240   7.944   5.005   1.296
    1TYR     BB  241   0.317   2.010   7.300
    1TYR    SC1  242   0.033   2.097   7.394
    1TYR    SC2  243   0.093   2.148   7.622
    1TYR    SC3  244  -0.058   2.339   7.622
    2GLU     BB  245   0.432   2.314   7.491
    2GLU    SC1  246   0.826   2.276   7.383
    3TYR     BB  247   0.514   2.384   7.795
    3TYR    SC1  248   0.279   2.530   7.885
    3TYR    SC2  249   0.317   2.594   8.115
    3TYR    SC3  250   0.215   2.810   8.074
    1TYR     BB  251   0.952   2.112   6.620
    1TYR    SC1  252   0.884   2.414   6.647
    1TYR    SC2  253   1.096   2.499   6.570
    1TYR    SC3  254   0.985   2.680   6.453
    2GLU     BB  255   1.102   2.214   6.290
    2GLU    SC1  256   1.199   1.832   6.175
    3TYR     BB  257   1.386   2.325   6.185
    3TYR    SC1  258   1.325   2.606   6.139
    3TYR    SC2  259   1.525   2.712   6.059
    3TYR    SC3  260   1.397   2.843   5.900
    1TYR     BB  261   5.491   6.338   8.153
    1TYR    SC1  262   5.205   6.245   8.232
    1TYR    SC2  263   5.085   6.427   8.129
    1TYR    SC3  264   4.908   6.276   8.060
    2GLU     BB  265   5.334   6.407   7.817
    2GLU    SC1  266   5.686   6.519   7.636
    3TYR     BB  267   5.176   6.651   7.677
    3TYR    SC1  268   4.902   6.552   7.681
    3TYR    SC2  269   4.763   6.720   7.580
    3TYR    SC3  270   4.633   6.548   7.466
    1TYR     BB  271   3.675   2.957   1.380
    1TYR    SC1  272   3.751   3.035   1.089
    1TYR    SC2  273   3.805   3.265   1.134
    1TYR    SC3  274   3.989   3.256   0.976
    2GLU     BB  275   3.984   3.152   1.472
    2GLU    SC1  276   3.962   3.067   1.873
    3TYR     BB  277   4.058   3.460   1.535
    3TYR    SC1  278   4.194   3.537   1.290
    3TYR    SC2  279   4.260   3.768   1.313
    3TYR    SC3  280   4.472   3.721   1.204
    1TYR     BB  281   4.247   0.225   1.709
    1TYR    SC1  282   4.001   0.328   1.548
    1TYR    SC2  283   4.124   0.411   1.358
    1TYR    SC3  284   3.949   0.335   1.208
    2GLU     BB  285   4.360   0.090   1.376
    2GLU    SC1  286   4.694  -0.097   1.526
    3TYR     BB  287   4.526   0.199   1.122
    3TYR    SC1  288   4.313   0.241   0.928
    3TYR    SC2  289   4.415   0.324   0.726
    3TYR    SC3  290   4.266   0.187   0.592
    1TYR     BB  291   6.903   7.208   6.726
    1TYR    SC1  292   7.125   7.347   6.558
    1TYR    SC2  293   7.313   7.245   6.669
    1TYR    SC3  294   7.432   7.227   6.458
    2GLU     BB  295   7.114   6.899   6.679
    2GLU    SC1  296   6.850   6.648   6.869
    3TYR     BB  297   7.364   6.760   6.829
    3TYR    SC1  298   7.582   6.824   6.646
    3TYR    SC2  299   7.783   6.729   6.738
    3TYR    SC3  300   7.856   6.662   6.516
    1TYR     BB  301   5.802   3.299   2.759
    1TYR    SC1  302   6.057   3.409   2.618
    1TYR    SC2  303   5.973   3.394   2.392
    1TYR    SC3  304   6.084   3.603   2.335
    2GLU     BB  305   5.618   3.525   2.521
    2GLU    SC1  306   5.247   3.446   2.677
    3TYR     BB  307   5.503   3.507   2.220
    3TYR    SC1  308   5.699   3.666   2.074
    3TYR    SC2  309   5.634   3.666   1.842
    3TYR    SC3  310   5.695   3.901   1.823
    1TYR     BB  311   2.751   5.480   6.810
    1TYR    SC1  312   2.766   5.219   6.641
    1TYR    SC2  313   2.968   5.273   6.523
    1TYR    SC3  314   3.041   5.041   6.536
    2GLU     BB  315   3.120   5.423   6.861
    2GLU    SC1  316   3.170   5.741   7.117
    3TYR     BB  317   3.393   5.496   6.706
    3TYR    SC1  318   3.463   5.238   6.589
    3TYR    SC2  319   3.667   5.268   6.465
    3TYR    SC3  320   3.749   5.053   6.543
    1TYR     BB  321   2.250   0.610   0.652
    1TYR    SC1  322   2.320   0.466   0.385
    1TYR    SC2  323   2.515   0.598   0.332
    1TYR    SC3  324   2.628   0.401   0.245
    2GLU     BB  325   2.621   0.588   0.717
    2GLU    SC1  326   2.600   0.749   1.094
    3TYR     BB  327   2.882   0.764   0.649
    3TYR    SC1  328   3.004   0.605   0.437
    3TYR    SC2  329   3.204   0.719   0.368
    3TYR    SC3  330   3.321   0.507   0.347
    1TYR     BB  331   4.575   1.010   3.552
    1TYR    SC1  332   4.335   1.157   3.420
    1TYR    SC2  333   4.385   1.096   3.193
    1TYR    SC3  334   4.148   1.070   3.145
    2GLU     BB  335   4.482   0.729   3.319
    2GLU    SC1  336   4.763   0.467   3.464
    3TYR     BB  337   4.549   0.643   3.015
    3TYR    SC1  338   4.301   0.715   2.880
    3TYR    SC2  339   4.328   0.660   2.647
    3TYR    SC3  340   4.099   0.578   2.637
    1TYR     BB  341   4.283   0.750   5.997
    1TYR    SC1  342   4.567   0.630   5.952
    1TYR    SC2  343   4.527   0.543   5.731
    1TYR    SC3  344   4.752   0.606   5.662
    2GLU     BB  345   4.322   0.875   5.643
    2GLU    SC1  346   3.966   1.081   5.640
    3TYR     BB  347   4.267   0.762   5.347
    3TYR    SC1  348   4.538   0.702   5.257
    3TYR    SC2  349   4.522   0.614   5.033
    3TYR    SC3  350   4.720   0.739   4.967
    1TYR     BB  351   0.041   5.504   4.461
    1TYR    SC1  352   0.287   5.692   4.431
    1TYR    SC2  353   0.400   5.623   4.632
    1TYR    SC3  354   0.615   5.639   4.520
    2GLU     BB  355   0.298   5.244   4.554
    2GLU    SC1  356   0.028   4.937   4.587
    3TYR     BB  357   0.449   5.149   4.822
    3TYR    SC1  358   0.714   5.264   4.782
    3TYR    SC2  359   0.848   5.205   4.973
    3TYR    SC3  360   1.040   5.165   4.830
    1TYR     BB  361   6.171   7.517   7.739
    1TYR    SC1  362   5.905   7.356   7.715
    1TYR    SC2  363   5.821   7.469   7.520
    1TYR    SC3  364   5.731   7.261   7.434
    2GLU     BB  365   6.189   7.468   7.366
    2GLU    SC1  366   6.557   7.647   7.326
    3TYR     BB  367   6.079   7.619   7.104
    3TYR    SC1  368   5.862   7.443   7.023
    3TYR    SC2  369   5.762   7.537   6.825
    3TYR    SC3  370   5.739   7.315   6.728
    1TYR     BB  371   6.366   5.412   1.768
    1TYR    SC1  372   6.178   5.627   1.893
    1TYR    SC2  373   6.123   5.503   2.092
    1TYR    SC3  374   6.128   5.707   2.224
    2GLU     BB  375   6.503   5.382   2.118
    2GLU    SC1  376   6.796   5.112   2.017
    3TYR     BB  377   6.431   5.216   2.384
    3TYR    SC1  378   6.309   5.422   2.549
    3TYR    SC2  379   6.245   5.320   2.758
    3TYR    SC3  380   6.318   5.517   2.880
    1TYR     BB  381   2.633   8.252   1.539
    1TYR    SC1  382   2.713   7.956   1.483
    1TYR    SC2  383   2.634   7.866   1.692
    1TYR    SC3  384   2.557   7.665   1.578
    2GLU     BB  385   2.312   8.101   1.667
    2GLU    SC1  386   2.131   8.462   1.742
    3TYR     BB  387   2.204   7.981   1.946
    3TYR    SC1  388   2.209   7.695   1.891
    3TYR    SC2  389   2.131   7.582   2.088
    3TYR    SC3  390   2.005   7.424   1.953
    1TYR     BB  391   5.727   5.116   4.665
    1TYR    SC1  392   5.584   4.979   4.425
    1TYR    SC2  393   5.360   4.996   4.511
    1TYR    SC3  394   5.275   5.042   4.289
    2GLU     BB  395   5.444   5.364   4.643
    2GLU    SC1  396   5.589   5.610   4.937
    3TYR     BB  397   5.144   5.390   4.759
    3TYR    SC1  398   4.986   5.327   4.523
    3TYR    SC2  399   4.753   5.339   4.587
    3TYR    SC3  400   4.698   5.445   4.375
    1TYR     BB  401   7.468   1.276   4.529
    1TYR    SC1  402   7.663   1.391   4.743
    1TYR    SC2  403   7.542   1.594   4.786
    1TYR    SC3  404   7.595   1.580   5.022
    2GLU     BB  405   7.200   1.389   4.768
    2GLU    SC1  406   6.889   1.237   4.547
    3TYR     BB  407   7.035   1.660   4.826
    3TYR    SC1  408   7.163   1.754   5.070
    3TYR    SC2  409   7.055   1.960   5.134
    3TYR    SC3  410   7.063   1.895   5.368
    1TYR     BB  411   3.764   5.165   4.454
    1TYR    SC1  412   4.005   5.327   4.564
    1TYR    SC2  413   4.027   5.208   4.772
    1TYR    SC3  414   4.269   5.222   4.758
    2GLU     BB  415   3.957   4.866   4.578
    2GLU    SC1  416   3.690   4.589   4.433
    3TYR     BB  417   3.986   4.703   4.855
    3TYR    SC1  418   4.247   4.794   4.947
    3TYR    SC2  419   4.292   4.685   5.157
    3TYR    SC3  420   4.524   4.653   5.094
    1TYR     BB  421   4.781   6.305   2.842
    1TYR    SC1  422   4.864   6.051   2.683
    1TYR    SC2  423   4.893   5.906   2.874
    1TYR    SC3  424   4.799   5.719   2.750
    2GLU     BB  425   4.566   6.065   3.038
    2GLU    SC1  426   4.391   6.357   3.270
    3TYR     BB  427   4.602   5.874   3.295
    3TYR    SC1  428   4.617   5.612   3.168
    3TYR    SC2  429   4.644   5.448   3.343
    3TYR    SC3  430   4.493   5.296   3.229
    1TYR     BB  431   0.633   2.795   2.389
    1TYR    SC1  432   0.813   3.030   2.295
    1TYR    SC2  433   1.010   2.967   2.419
    1TYR    SC3  434   1.152   3.037   2.235
    2GLU     BB  435   0.940   2.585   2.326
    2GLU    SC1  436   0.757   2.228   2.412
    3TYR     BB  437   1.203   2.498   2.491
    3TYR    SC1  438   1.406   2.667   2.369
    3TYR    SC2  439   1.616   2.619   2.478
    3TYR    SC3  440   1.733   2.632   2.265
    1TYR     BB  441   1.206   8.156   5.482
    1TYR    SC1  442   1.442   8.036   5.645
    1TYR    SC2  443   1.490   7.853   5.496
    1TYR    SC3  444   1.728   7.881   5.534
    2GLU     BB  445   1.431   8.098   5.185
    2GLU    SC1  446   1.175   8.269   4.913
    3TYR     BB  447   1.495   7.855   4.983
    3TYR    SC1  448   1.755   7.766   5.080
    3TYR    SC2  449   1.825   7.582   4.942
    3TYR    SC3  450   2.053   7.664   4.943
    1TYR     BB  451   0.770   4.070   0.365
    1TYR    SC1  452   0.741   3.839   0.159
    1TYR    SC2  453   0.629   3.684   0.305
    1TYR    SC3  454   0.488   3.609   0.122
    2GLU     BB  455   0.413   3.987   0.452
    2GLU    SC1  456   0.370   4.293   0.723
    3TYR     BB  457   0.261   3.782   0.649
    3TYR    SC1  458   0.165   3.582   0.460
    3TYR    SC2  459   0.046   3.415   0.586
    3TYR    SC3  460  -0.123   3.400   0.413
    1TYR     BB  461   3.605   6.991   5.045
    1TYR    SC1  462   3.302   6.974   4.975
    1TYR    SC2  463   3.221   6.962   5.201
    1TYR    SC3  464   3.031   7.101   5.144
    2GLU     BB  465   3.492   7.236   5.308
    2GLU    SC1  466   3.871   7.329   5.435
    3TYR     BB  467   3.385   7.222   5.612
    3TYR    SC1  468   3.101   7.271   5.575
    3TYR    SC2  469   2.997   7.265   5.793
    3TYR    SC3  470   2.855   7.453   5.733
    1TYR     BB  471  -0.048   6.890   2.592
    1TYR    SC1  472   0.058   7.048   2.838
    1TYR    SC2  473   0.203   7.196   2.715
    1TYR    SC3  474   0.146   7.380   2.863
    2GLU     BB  475  -0.077   7.230   2.433
    2GLU    SC1  476  -0.249   7.092   2.086
    3TYR     BB  477   0.115   7.429   2.267
    3TYR    SC1  478   0.177   7.630   2.468
    3TYR    SC2  479   0.322   7.793   2.366
    3TYR    SC3  480   0.206   7.973   2.480
    1TYR     BB  481   5.916   5.474   7.724
    1TYR    SC1  482   6.091   5.537   7.974
    1TYR    SC2  483   6.280   5.626   7.854
    1TYR    SC3  484   6.314   5.794   8.026
    2GLU     BB  485   6.030   5.814   7.606
    2GLU    SC1  486   5.800   5.810   7.265
    3TYR     BB  487   6.281   5.934   7.444
    3TYR    SC1  488   6.432   6.060   7.659
    3TYR    SC2  489   6.628   6.159   7.561
    3TYR    SC3  490   6.606   6.354   7.704
    1TYR     BB  491   6.081   2.226   5.753
    1TYR    SC1  492   6.360   2.236   5.892
    1TYR    SC2  493   6.286   2.338   6.097
    1TYR    SC3  494   6.441   2.201   6.224
    2GLU     BB  495   5.961   2.106   6.090
    2GLU    SC1  496   5.573   2.043   5.968
    3TYR     BB  497   5.859   2.241   6.365
    3TYR    SC1  498   6.091   2.201   6.536
    3TYR    SC2  499   6.039   2.296   6.752
    3TYR    SC3  500   6.149   2.110   6.863
    1TYR     BB  501   2.317   1.647   0.129
    1TYR    SC1  502   2.478   1.891   0.237
    1TYR    SC2  503   2.308   2.057   0.196
    1TYR    SC3  504   2.366   2.171   0.403
    2GLU     BB  505   2.031   1.799   0.322
    2GLU    SC1  506   1.768   1.494   0.240
    3TYR     BB  507   1.802   2.020   0.269
    3TYR    SC1  508   1.904   2.246   0.422
    3TYR    SC2  509   1.747   2.427   0.397
    3TYR    SC3  510   1.774   2.486   0.631
    1TYR     BB  511   1.771   5.140   6.262
    1TYR    SC1  512   1.966   5.364   6.168
    1TYR    SC2  513   1.827   5.451   5.992
    1TYR    SC3  514   1.896   5.678   6.045
    2GLU     BB  515   1.507   5.408   6.228
    2GLU    SC1  516   1.201   5.173   6.370
    3TYR     BB  517   1.319   5.523   5.993
    3TYR    SC1  518   1.451   5.776   5.933
    3TYR    SC2  519   1.327   5.883   5.757
    3TYR    SC3  520   1.356   6.099   5.864
    1TYR     BB  521   2.144   6.235   6.926
    1TYR    SC1  522   2.147   5.935   6.843
    1TYR    SC2  523   2.362   5.881   6.936
    1TYR    SC3  524   2.280   5.663   7.006
    2GLU     BB  525   2.274   6.105   7.256
    2GLU    SC1  526   2.271   6.472   7.441
    3TYR     BB  527   2.561   6.035   7.384
    3TYR    SC1  528   2.557   5.743   7.376
    3TYR    SC2  529   2.765   5.665   7.468
    3TYR    SC3  530   2.650   5.485   7.583
    1TYR     BB  531   3.573   1.988   4.865
    1TYR    SC1  532   3.592   2.226   5.064
    1TYR    SC2  533   3.459   2.128   5.239
    1TYR    SC3  534   3.605   2.223   5.408
    2GLU     BB  535   3.637   1.777   5.170
    2GLU    SC1  536   3.651   1.421   4.964
    3TYR     BB  537   3.460   1.642   5.404
    3TYR    SC1  538   3.517   1.819   5.628
    3TYR    SC2  539   3.394   1.737   5.818
    3TYR    SC3  540   3.582   1.785   5.964
    1TYR     BB  541   7.758   1.051   3.339
    1TYR    SC1  542   7.604   1.068   3.608
    1TYR    SC2  543   7.648   0.843   3.681
    1TYR    SC3  544   7.673   0.919   3.911
    2GLU     BB  545   8.022   0.878   3.545
    2GLU    SC1  546   8.291   0.843   3.236
    3TYR     BB  547   8.085   0.577   3.642
    3TYR    SC1  548   8.006   0.590   3.922
    3TYR    SC2  549   8.043   0.372   4.018
    3TYR    SC3  550   8.127   0.473   4.223
    1TYR     BB  551   0.117   7.310   1.098
    1TYR    SC1  552  -0.025   7.268   1.372
    1TYR    SC2  553   0.056   7.045   1.412
    1TYR    SC3  554   0.082   7.093   1.649
    2GLU     BB  555   0.414   7.154   1.270
    2GLU    SC1  556   0.668   7.203   0.951
    3TYR     BB  557   0.525   6.856   1.323
    3TYR    SC1  558   0.459   6.820   1.604
    3TYR    SC2  559   0.534   6.600   1.668
    3TYR    SC3  560   0.612   6.685   1.882
    1TYR     BB  561   7.036   0.412   3.794
    1TYR    SC1  562   6.771   0.566   3.739
    1TYR    SC2  563   6.848   0.688   3.546
    1TYR    SC3  564   6.632   0.662   3.439
    2GLU     BB  565   7.040   0.360   3.421
    2GLU    SC1  566   7.376   0.125   3.422
    3TYR     BB  567   7.145   0.522   3.163
    3TYR    SC1  568   6.895   0.623   3.053
    3TYR    SC2  569   6.949   0.750   2.855
    3TYR    SC3  570   6.755   0.660   2.741
    1TYR     BB  571   4.192   6.208   1.784
    1TYR    SC1  572   3.901   6.170   1.887
    1TYR    SC2  573   3.792   6.299   1.716
    1TYR    SC3  574   3.607   6.142   1.710
    2GLU     BB  575   4.040   6.141   1.445
    2GLU    SC1  576   4.398   6.151   1.244
    3TYR     BB  577   3.896   6.313   1.214
    3TYR    SC1  578   3.617   6.238   1.252
    3TYR    SC2  579   3.487   6.356   1.087
    3TYR    SC3  580   3.349   6.160   1.051
    1TYR     BB  581   8.238   8.028   4.677
    1TYR    SC1  582   8.321   8.197   4.925
    1TYR    SC2  583   8.101   8.218   5.021
    1TYR    SC3  584   8.193   8.195   5.244
    2GLU     BB  585   8.028   7.836   4.926
    2GLU    SC1  586   7.897   7.558   4.654
    3TYR     BB  587   7.733   7.862   5.053
    3TYR    SC1  588   7.794   7.960   5.320
    3TYR    SC2  589   7.586   7.988   5.437
    3TYR    SC3  590   7.685   7.901   5.641
    1TYR     BB  591   2.156   2.854   6.940
    1TYR    SC1  592   2.129   2.820   6.631
    1TYR    SC2  593   2.040   3.039   6.586
    1TYR    SC3  594   2.169   3.052   6.381
    2GLU     BB  595   2.296   3.193   6.852
    2GLU    SC1  596   2.384   3.296   7.240
    3TYR     BB  597   2.178   3.487   6.793
    3TYR    SC1  598   2.206   3.503   6.504
    3TYR    SC2  599   2.123   3.718   6.434
    3TYR    SC3  600   2.304   3.740   6.273
    1TYR     BB  601   7.948   2.299   1.737
    1TYR    SC1  602   8.218   2.365   1.877
    1TYR    SC2  603   8.124   2.457   2.079
    1TYR    SC3  604   8.300   2.355   2.212
    2GLU     BB  605   7.847   2.169   2.076
    2GLU    SC1  606   7.481   2.031   1.953
    3TYR     BB  607   7.719   2.290   2.346
    3TYR    SC1  608   7.952   2.298   2.521
    3TYR    SC2  609   7.881   2.388   2.733
    3TYR    SC3  610   8.021   2.229   2.851
    1TYR     BB  611   2.688   7.228   6.758
    1TYR    SC1  612   2.900   7.351   6.566
    1TYR    SC2  613   2.808   7.262   6.361
    1TYR    SC3  614   2.863   7.468   6.244
    2GLU     BB  615   2.441   7.343   6.497
    2GLU    SC1  616   2.109   7.228   6.710
    3TYR     BB  617   2.316   7.225   6.224
    3TYR    SC1  618   2.459   7.380   6.024
    3TYR    SC2  619   2.381   7.308   5.807
    3TYR    SC3  620   2.384   7.537   5.727
    1TYR     BB  621   3.641   4.402   3.311
    1TYR    SC1  622   3.696   4.389   3.617
    1TYR    SC2  623   3.762   4.619   3.644
    1TYR    SC3  624   3.648   4.631   3.858
    2GLU     BB  625   3.471   4.728   3.393
    2GLU    SC1  626   3.342   4.797   3.009
    3TYR     BB  627   3.558   5.037   3.427
    3TYR    SC1  628   3.551   5.066   3.716
    3TYR    SC2  629   3.613   5.293   3.767
    3TYR    SC3  630   3.444   5.304   3.942
    1TYR     BB  631   6.191   3.349   7.547
    1TYR    SC1  632   6.245   3.190   7.809
    1TYR    SC2  633   6.409   3.340   7.900
    1TYR    SC3  634   6.321   3.307   8.124
    2GLU     BB  635   6.190   3.650   7.774
    2GLU    SC1  636   6.093   3.917   7.477
    3TYR     BB  637   6.409   3.853   7.894
    3TYR    SC1  638   6.427   3.761   8.170
    3TYR    SC2  639   6.588   3.900   8.283
    3TYR    SC3  640   6.449   3.904   8.482
    1TYR     BB  641   6.212   7.439   4.173
    1TYR    SC1  642   6.015   7.474   4.412
    1TYR    SC2  643   6.115   7.309   4.556
    1TYR    SC3  644   6.074   7.450   4.750
    2GLU     BB  645   6.477   7.435   4.442
    2GLU    SC1  646   6.792   7.414   4.180
    3TYR     BB  647   6.613   7.215   4.634
    3TYR    SC1  648   6.486   7.276   4.889
    3TYR    SC2  649   6.573   7.121   5.052
    3TYR    SC3  650   6.583   7.298   5.219
    1TYR     BB  651   1.555   0.729   6.154
    1TYR    SC1  652   1.544   0.940   6.383
    1TYR    SC2  653   1.529   1.134   6.242
    1TYR    SC3  654   1.375   1.239   6.397
    2GLU     BB  655   1.279   0.936   6.001
    2GLU    SC1  656   1.220   0.685   5.682
    3TYR     BB  657   1.258   1.195   5.811
    3TYR    SC1  658   1.180   1.400   6.002
    3TYR    SC2  659   1.158   1.607   5.882
    3TYR    SC3  660   0.961   1.665   6.011
    1TYR     BB  661   5.075   1.640   7.780
    1TYR    SC1  662   4.838   1.655   7.578
    1TYR    SC2  663   4.856   1.890   7.529
    1TYR    SC3  664   4.802   1.849   7.296
    2GLU     BB  665   5.254   1.854   7.526
    2GLU    SC1  666   5.612   1.856   7.729
    3TYR     BB  667   5.281   2.168   7.461
    3TYR    SC1  668   5.112   2.192   7.225
    3TYR    SC2  669   5.116   2.423   7.156
    3TYR    SC3  670   5.125   2.357   6.922
    1TYR     BB  671   7.386   4.145   4.185
    1TYR    SC1  672   7.116   4.259   4.079
    1TYR    SC2  673   7.208   4.388   3.898
    1TYR    SC3  674   7.020   4.330   3.756
    2GLU     BB  675   7.461   4.089   3.820
    2GLU    SC1  676   7.821   3.903   3.887
    3TYR     BB  677   7.587   4.260   3.577
    3TYR    SC1  678   7.349   4.323   3.423
    3TYR    SC2  679   7.418   4.454   3.232
    3TYR    SC3  680   7.261   4.336   3.090
    1TYR     BB  681   1.132   3.769   3.346
    1TYR    SC1  682   1.372   3.583   3.277
    1TYR    SC2  683   1.270   3.473   3.088
    1TYR    SC3  684   1.482   3.472   2.970
    2GLU     BB  685   1.116   3.824   2.973
    2GLU    SC1  686   0.814   4.101   2.991
    3TYR     BB  687   0.979   3.680   2.720
    3TYR    SC1  688   1.208   3.548   2.598
    3TYR    SC2  689   1.129   3.430   2.403
    3TYR    SC3  690   1.327   3.496   2.279
    1TYR     BB  691   1.358   0.647   1.233
    1TYR    SC1  692   1.501   0.866   1.064
    1TYR    SC2  693   1.444   0.777   0.848
    1TYR    SC3  694   1.412   1.001   0.761
    2GLU     BB  695   1.078   0.692   0.985
    2GLU    SC1  696   0.822   0.432   1.173
    3TYR     BB  697   0.999   0.573   0.696
    3TYR    SC1  698   1.066   0.796   0.522
    3TYR    SC2  699   1.014   0.730   0.296
    3TYR    SC3  700   0.926   0.951   0.247
    1TYR     BB  701   1.155   7.414   3.932
    1TYR    SC1  702   1.337   7.505   3.697
    1TYR    SC2  703   1.243   7.359   3.530
    1TYR    SC3  704   1.265   7.533   3.362
    2GLU     BB  705   0.879   7.435   3.676
    2GLU    SC1  706   0.578   7.346   3.942
    3TYR     BB  707   0.750   7.241   3.454
    3TYR    SC1  708   0.860   7.354   3.209
    3TYR    SC2  709   0.776   7.223   3.025
    3TYR    SC3  710   0.746   7.424   2.892
    1TYR     BB  711   3.877   3.785   4.544
    1TYR    SC1  712   3.662   3.924   4.720
    1TYR    SC2  713   3.673   3.771   4.905
    1TYR    SC3  714   3.644   3.954   5.062
    2GLU     BB  715   4.071   3.761   4.866
    2GLU    SC1  716   4.406   3.596   4.694
    3TYR     BB  717   4.089   3.555   5.114
    3TYR    SC1  718   3.943   3.701   5.320
    3TYR    SC2  719   3.943   3.565   5.519
    3TYR    SC3  720   3.978   3.762   5.657
    1TYR     BB  721   4.570   4.037   0.566
    1TYR    SC1  722   4.839   4.172   0.645
    1TYR    SC2  723   4.866   4.301   0.443
    1TYR    SC3  724   4.955   4.487   0.571
    2GLU     BB  725   4.475   4.382   0.447
    2GLU    SC1  726   4.091   4.278   0.343
    3TYR     BB  727   4.509   4.555   0.177
    3TYR    SC1  728   4.720   4.740   0.254
    3TYR    SC2  729   4.764   4.882   0.065
    3TYR    SC3  730   4.788   5.075   0.211
    1TYR     BB  731   2.410   1.289   3.380
    1TYR    SC1  732   2.409   1.566   3.523
    1TYR    SC2  733   2.456   1.484   3.744
    1TYR    SC3  734   2.598   1.676   3.788
    2GLU     BB  735   2.719   1.226   3.587
    2GLU    SC1  736   2.798   0.859   3.420
    3TYR     BB  737   2.784   1.115   3.882
    3TYR    SC1  738   2.853   1.361   4.022
    3TYR    SC2  739   2.907   1.302   4.249
    3TYR    SC3  740   3.090   1.462   4.250
    1TYR     BB  741   2.443   6.343   2.036
    1TYR    SC1  742   2.155   6.226   2.028
    1TYR    SC2  743   2.168   6.103   2.235
    1TYR    SC3  744   1.938   6.160   2.287
    2GLU     BB  745   2.364   6.411   2.399
    2GLU    SC1  746   2.718   6.604   2.476
    3TYR     BB  747   2.383   6.250   2.677
    3TYR    SC1  748   2.104   6.184   2.724
    3TYR    SC2  749   2.092   6.060   2.931
    3TYR    SC3  750   1.889   6.178   2.993
    1TYR     BB  751   4.156   5.947   5.876
    1TYR    SC1  752   4.369   5.895   5.655
    1TYR    SC2  753   4.214   5.860   5.474
    1TYR    SC3  754   4.362   5.977   5.321
    2GLU     BB  755   3.990   6.160   5.612
    2GLU    SC1  756   3.689   6.292   5.859
    3TYR     BB  757   3.781   6.114   5.371
    3TYR    SC1  758   3.958   6.129   5.140
    3TYR    SC2  759   3.822   6.097   4.943
    3TYR    SC3  760   3.948   6.268   4.825
    1TYR     BB  761   8.084   5.009  -0.415
    1TYR    SC1  762   8.219   5.086  -0.145
    1TYR    SC2  763   8.022   5.066  -0.008
    1TYR    SC3  764   8.153   4.971   0.173
    2GLU     BB  765   7.919   4.737  -0.211
    2GLU    SC1  766   7.729   4.564  -0.532
    3TYR     BB  767   7.655   4.708  -0.030
    3TYR    SC1  768   7.769   4.711   0.238
    3TYR    SC2  769   7.587   4.691   0.395
    3TYR    SC3  770   7.720   4.542   0.534
    1TYR     BB  771   6.545   0.880   1.569
    1TYR    SC1  772   6.795   0.887   1.755
    1TYR    SC2  773   6.953   0.960   1.589
    1TYR    SC3  774   7.064   1.101   1.753
    2GLU     BB  775   6.677   1.210   1.444
    2GLU    SC1  776   6.360   1.281   1.192
    3TYR     BB  777   6.886   1.310   1.220
    3TYR    SC1  778   7.114   1.387   1.385
    3TYR    SC2  779   7.287   1.466   1.237
    3TYR    SC3  780   7.342   1.645   1.393
    1TYR     BB  781   5.270   4.413   4.270
    1TYR    SC1  782   5.433   4.252   4.059
    1TYR    SC2  783   5.650   4.292   4.154
    1TYR    SC3  784   5.719   4.066   4.099
    2GLU     BB  785   5.496   4.241   4.519
    2GLU    SC1  786   5.309   4.398   4.850
    3TYR     BB  787   5.786   4.294   4.649
    3TYR    SC1  788   5.949   4.099   4.506
    3TYR    SC2  789   6.175   4.120   4.587
    3TYR    SC3  790   6.202   3.879   4.583
    1TYR     BB  791   1.397   5.907   7.084
    1TYR    SC1  792   1.259   5.679   7.244
    1TYR    SC2  793   1.402   5.689   7.438
    1TYR    SC3  794   1.213   5.646   7.584
    2GLU     BB  795   1.397   6.088   7.415
    2GLU    SC1  796   1.555   6.436   7.265
    3TYR     BB  797   1.589   6.104   7.674
    3TYR    SC1  798   1.439   5.944   7.866
    3TYR    SC2  799   1.565   5.941   8.071
    3TYR    SC3  800   1.360   5.962   8.200
    1TYR     BB  801   4.952   2.789   1.417
    1TYR    SC1  802   5.177   2.826   1.628
    1TYR    SC2  803   5.037   2.812   1.823
    1TYR    SC3  804   5.209   2.688   1.942
    2GLU     BB  805   4.832   2.516   1.648
    2GLU    SC1  806   4.526   2.394   1.403
    3TYR     BB  807   4.642   2.495   1.907
    3TYR    SC1  808   4.839   2.461   2.120
    3TYR    SC2  809   4.719   2.443   2.328
    3TYR    SC3  810   4.872   2.270   2.404
    1TYR     BB  811   2.161   7.511   2.921
    1TYR    SC1  812   2.255   7.363   2.664
    1TYR    SC2  813   2.241   7.140   2.753
    1TYR    SC3  814   2.159   7.057   2.540
    2GLU     BB  815   1.900   7.239   2.937
    2GLU    SC1  816   1.707   7.395   3.265
    3TYR     BB  817   1.879   6.941   3.058
    3TYR    SC1  818   1.900   6.780   2.816
    3TYR    SC2  819   1.886   6.549   2.881
    3TYR    SC3  820   1.748   6.499   2.688
    1TYR     BB  821   6.121   2.770   3.397
    1TYR    SC1  822   5.960   3.035   3.413
    1TYR    SC2  823   5.948   3.048   3.653
    1TYR    SC3  824   5.977   3.289   3.644
    2GLU     BB  825   6.327   2.924   3.673
    2GLU    SC1  826   6.599   2.616   3.690
    3TYR     BB  827   6.315   2.940   3.995
    3TYR    SC1  828   6.225   3.214   4.035
    3TYR    SC2  829   6.207   3.251   4.272
    3TYR    SC3  830   6.300   3.474   4.247
    1TYR     BB  831   1.282   0.599   3.142
    1TYR    SC1  832   1.467   0.730   2.929
    1TYR    SC2  833   1.396   0.596   2.742
    1TYR    SC3  834   1.409   0.789   2.595
    2GLU     BB  835   1.019   0.622   2.874
    2GLU    SC1  836   0.715   0.478   3.109
    3TYR     BB  837   0.921   0.443   2.625
    3TYR    SC1  838   1.032   0.591   2.400
    3TYR    SC2  839   0.971   0.474   2.198
    3TYR    SC3  840   0.928   0.685   2.085
    1TYR     BB  841   7.117   2.971   3.122
    1TYR    SC1  842   6.819   2.885   3.101
    1TYR    SC2  843   6.732   3.100   3.037
    1TYR    SC3  844   6.574   2.995   2.885
    2GLU     BB  845   7.049   3.153   2.799
    2GLU    SC1  846   7.436   3.280   2.749
    3TYR     BB  847   6.935   3.441   2.712
    3TYR    SC1  848   6.667   3.372   2.622
    3TYR    SC2  849   6.559   3.575   2.551
    3TYR    SC3  850   6.459   3.459   2.362
    1TYR     BB  851   7.546   7.170   7.505
    1TYR    SC1  852   7.793   7.266   7.667
    1TYR    SC2  853   7.672   7.383   7.838
    1TYR    SC3  854   7.830   7.307   8.006
    2GLU     BB  855   7.403   7.086   7.844
    2GLU    SC1  856   7.059   6.918   7.696
    3TYR     BB  857   7.238   7.241   8.073
    3TYR    SC1  858   7.446   7.284   8.273
    3TYR    SC2  859   7.345   7.400   8.458
    3TYR    SC3  860   7.472   7.266   8.616
    1TYR     BB  861   4.683   1.746   6.372
    1TYR    SC1  862   4.601   2.004   6.525
    1TYR    SC2  863   4.475   1.895   6.699
    1TYR    SC3  864   4.558   2.054   6.863
    2GLU     BB  865   4.755   1.610   6.716
    2GLU    SC1  866   4.904   1.252   6.581
    3TYR     BB  867   4.590   1.462   6.949
    3TYR    SC1  868   4.557   1.678   7.142
    3TYR    SC2  869   4.434   1.590   7.329
    3TYR    SC3  870   4.574   1.714   7.484
    1TYR     BB  871   4.918   7.261   0.417
    1TYR    SC1  872   4.801   7.380   0.154
    1TYR    SC2  873   4.763   7.170   0.042
    1TYR    SC3  874   4.556   7.255  -0.053
    2GLU     BB  875   4.634   7.015   0.387
    2GLU    SC1  876   4.716   6.825   0.742
    3TYR     BB  877   4.582   6.733   0.241
    3TYR    SC1  878   4.412   6.815   0.019
    3TYR    SC2  879   4.359   6.617  -0.109
    3TYR    SC3  880   4.131   6.695  -0.139
    1TYR     BB  881   7.970   0.680   1.469
    1TYR    SC1  882   8.149   0.474   1.320
    1TYR    SC2  883   7.998   0.431   1.138
    1TYR    SC3  884   8.184   0.417   0.983
    2GLU     BB  885   7.910   0.820   1.124
    2GLU    SC1  886   7.683   1.137   1.254
    3TYR     BB  887   7.707   0.766   0.881
    3TYR    SC1  888   7.880   0.625   0.693
    3TYR    SC2  889   7.748   0.572   0.498
    3TYR    SC3  890   7.935   0.626   0.353
    1TYR     BB  891   2.971   4.476   7.492
    1TYR    SC1  892   3.118   4.585   7.744
    1TYR    SC2  893   3.265   4.397   7.775
    1TYR    SC3  894   3.446   4.545   7.841
    2GLU     BB  895   3.317   4.379   7.379
    2GLU    SC1  896   3.196   4.240   7.012
    3TYR     BB  897   3.514   4.126   7.417
    3TYR    SC1  898   3.707   4.233   7.608
    3TYR    SC2  899   3.868   4.059   7.653
    3TYR    SC3  900   4.048   4.222   7.653
    1TYR     BB  901   6.140   1.088   0.603
    1TYR    SC1  902   6.235   1.382   0.642
    1TYR    SC2  903   6.276   1.430   0.409
    1TYR    SC3  904   6.190   1.656   0.438
    2GLU     BB  905   5.943   1.230   0.315
    2GLU    SC1  906   5.756   0.876   0.222
    3TYR     BB  907   5.995   1.293   0.003
    3TYR    SC1  908   6.022   1.583   0.006
    3TYR    SC2  909   6.063   1.654  -0.220
    3TYR    SC3  910   5.919   1.847  -0.188
    1TYR     BB  911   5.434   1.451   3.242
    1TYR    SC1  912   5.669   1.450   3.038
    1TYR    SC2  913   5.816   1.594   3.163
    1TYR    SC3  914   6.008   1.462   3.095
    2GLU     BB  915   5.706   1.406   3.499
    2GLU    SC1  916   5.448   1.371   3.817
    3TYR     BB  917   5.902   1.597   3.669
    3TYR    SC1  918   6.154   1.559   3.530
    3TYR    SC2  919   6.320   1.695   3.640
    3TYR    SC3  920   6.485   1.518   3.616
    1TYR     BB  921   3.323   6.870   3.347
    1TYR    SC1  922   3.582   6.700   3.376
    1TYR    SC2  923   3.632   6.762   3.603
    1TYR    SC3  924   3.708   6.536   3.651
    2GLU     BB  925   3.243   6.737   3.691
    2GLU    SC1  926   2.873   6.913   3.712
    3TYR     BB  927   3.308   6.820   3.996
    3TYR    SC1  928   3.510   6.623   4.067
    3TYR    SC2  929   3.576   6.666   4.295
    3TYR    SC3  930   3.584   6.427   4.340
    1TYR     BB  931   7.227   2.209   3.676
    1TYR    SC1  932   7.180   2.030   3.925
    1TYR    SC2  933   7.404   2.044   4.014
    1TYR    SC3  934   7.318   2.051   4.240
    2GLU     BB  935   7.412   2.432   3.918
    2GLU    SC1  936   7.488   2.727   3.643
    3TYR     BB  937   7.711   2.454   4.035
    3TYR    SC1  938   7.676   2.347   4.304
    3TYR    SC2  939   7.890   2.353   4.413
    3TYR    SC3  940   7.786   2.423   4.621
    1TYR     BB  941   6.765   5.367   0.403
    1TYR    SC1  942   6.861   5.645   0.504
    1TYR    SC2  943   6.756   5.634   0.721
    1TYR    SC3  944   6.947   5.744   0.822
    2GLU     BB  945   6.863   5.250   0.748
    2GLU    SC1  946   6.782   4.854   0.674
    3TYR     BB  947   6.724   5.232   1.038
    3TYR    SC1  948   6.853   5.453   1.177
    3TYR    SC2  949   6.763   5.460   1.400
    3TYR    SC3  950   6.983   5.511   1.490
    1TYR     BB  951   5.197   4.235   5.815
    1TYR    SC1  952   5.349   4.074   6.034
    1TYR    SC2  953   5.341   3.861   5.922
    1TYR    SC3  954   5.565   3.809   6.000
    2GLU     BB  955   5.417   4.044   5.576
    2GLU    SC1  956   5.281   4.238   5.240
    3TYR     BB  957   5.407   3.760   5.424
    3TYR    SC1  958   5.600   3.606   5.579
    3TYR    SC2  959   5.610   3.385   5.483
    3TYR    SC3  960   5.851   3.380   5.514
    1TYR     BB  961   7.191   0.275   1.673
    1TYR    SC1  962   6.925   0.436   1.664
    1TYR    SC2  963   6.897   0.431   1.425
    1TYR    SC3  964   6.657   0.404   1.451
    2GLU     BB  965   7.020   0.050   1.424
    2GLU    SC1  966   7.326  -0.223   1.407
    3TYR     BB  967   6.983   0.040   1.104
    3TYR    SC1  968   6.706   0.128   1.076
    3TYR    SC2  969   6.654   0.128   0.841
    3TYR    SC3  970   6.433   0.039   0.886
    1TYR     BB  971   3.112   2.882   7.956
    1TYR    SC1  972   3.185   3.184   7.939
    1TYR    SC2  973   3.411   3.155   7.861
    1TYR    SC3  974   3.389   3.348   7.716
    2GLU     BB  975   3.286   2.861   7.622
    2GLU    SC1  976   3.201   2.463   7.564
    3TYR     BB  977   3.587   2.819   7.516
    3TYR    SC1  978   3.655   3.089   7.430
    3TYR    SC2  979   3.881   3.084   7.346
    3TYR    SC3  980   3.820   3.234   7.165
    1TYR     BB  981   5.415   3.197   6.183
    1TYR    SC1  982   5.621   3.002   6.312
    1TYR    SC2  983   5.619   3.099   6.532
    1TYR    SC3  984   5.635   2.879   6.633
    2GLU     BB  985   5.223   3.145   6.504
    2GLU    SC1  986   4.900   3.371   6.388
    3TYR     BB  987   5.218   3.276   6.798
    3TYR    SC1  988   5.353   3.070   6.954
    3TYR    SC2  989   5.362   3.146   7.182
    3TYR    SC3  990   5.314   2.922   7.262
    1TYR     BB  991   6.677   6.331   4.981
    1TYR    SC1  992   6.944   6.197   4.893
    1TYR    SC2  993   6.875   5.969   4.930
    1TYR    SC3  994   6.996   5.897   4.732
    2GLU     BB  995   6.516   6.057   4.778
    2GLU    SC1  996   6.133   6.194   4.832
    3TYR     BB  997   6.422   5.753   4.827
    3TYR    SC1  998   6.632   5.605   4.689
    3TYR    SC2  999   6.582   5.370   4.713
    3TYR    SC3 1000   6.651   5.330   4.483
    4W        W 1001   5.106   7.621   1.686
    5W        W 1002   3.772   4.299   0.403
    6W        W 1003   5.683   0.072   4.002
    7W        W 1004   2.537   3.319   3.106
    8W        W 1005   3.102   5.951   3.455
    9W        W 1006   3.373   7.676   5.025
   10W        W 1007   3.112   3.406   6.189
   11W        W 1008   3.682   2.669   5.460
   12W        W 1009   6.617   2.508   3.357
   13W        W 1010   0.928   6.753   6.162
   14W        W 1011   2.972   7.428   4.929
   15W        W 1012   7.158   3.321   3.628
   16W        W 1013   6.117   6.459   3.240
   17W        W 1014   7.256   3.126   1.905
   18W        W 1015   4.479   7.132   6.676
   19W        W 1016   3.548   2.037   0.913
   20W        W 1017   4.614   4.267   3.949
   21W        W 1018   4.204   3.886   1.026
   22W        W 1019   3.255   5.763   3.879
   23W        W 1020   5.594   4.501   0.154
   24W        W 1021   3.957   5.410   1.281
   25W        W 1022   0.331   3.089   3.924
   26W        W 1023   1.975   6.238   5.081
   27W        W 1024   5.364   2.299   5.526
   28W        W 1025   2.937   0.037   5.008
   29W        W 1026   1.453   4.276   3.805
   30W        W 1027   3.032   2.144   5.556
   31W        W 1028   0.429   6.932   3.776
   32W        W 1029   2.769   0.900   5.002
   33W        W 1030   1.095   7.587   5.519
   34W        W 1031   0.180   4.842   4.244
   35W        W 1032   6.949   4.572   2.275
   36W        W 1033   7.654   6.841   5.972
   37W        W 1034   3.181   1.827   1.211
   38W        W 1035   4.354   0.291   4.467
   39W        W 1036   3.430   4.024   2.538
   40W        W 1037   3.545   3.352   0.603
   41W        W 1038   2.630   7.135   2.585
   42W        W 1039   5.533   0.490   3.665
   43W        W 1040   2.251   0.633   4.073
   44W        W 1041   3.736   4.560   6.753
   45W        W 1042   4.599   2.116   6.133
   46W        W 1043   4.568   6.469   2.461
   47W        W 1044   4.819   6.067   6.364
   48W        W 1045   0.606   2.177   6.213
   49W        W 1046   1.119   5.630   1.968
   50W        W 1047   2.617   7.080   0.519
   51W        W 1048   1.180   3.272   4.125
   52W        W 1049   3.481   0.246   1.393
   53W        W 1050   6.733   1.195   3.868
   54W        W 1051   1.407   0.692   3.619
   55W        W 1052   1.602   2.575   3.865
   56W        W 1053   3.987   7.321   3.032
   57W        W 1054   1.855   6.457   3.898
   58W        W 1055   5.253   5.959   0.677
   59W        W 1056   4.050   5.464   2.603
   60W        W 1057   2.220   4.370   2.646
   61W        W 1058   6.449   1.641   4.888
   62W        W 1059   0.387   1.607   7.962
   63W        W 1060   1.261   6.947   0.428
   64W        W 1061   2.307   7.508   1.384
   65W        W 1062   6.442   3.540   3.828
   66W        W 1063   3.367   3.532   4.367
   67W        W 1064   3.230   4.191   0.394
   68W        W 1065   3.462   3.638   5.146
   69W        W 1066   6.619   6.519   2.671
   70W        W 1067   7.309   0.266   0.194
   71W        W 1068   3.211   0.699   7.320
   72W        W 1069   7.424   3.158   0.769
   73W        W 1070   5.880   5.100   7.157
   74W        W 1071   6.438   4.924   7.950
   75W        W 1072   5.937   5.515   6.608
   76W        W 1073   0.024   0.654   7.928
   77W        W 1074   6.084   2.032   2.232
   78W        W 1075   5.349   6.095   3.993
   79W        W 1076   1.816   2.172   7.150
   80W        W 1077   6.188   7.690   0.733
   81W        W 1078   1.268   4.458   2.892
   82W        W 1079   7.814   7.422   5.045
   83W        W 1080   0.750   1.601   4.399
   84W        W 1081   1.797   0.656   7.022
   85W        W 1082   4.102   4.177   4.143
   86W        W 1083   2.391   5.181   5.671
   87W        W 1084   5.650   7.086   2.695
   88W        W 1085   6.056   5.766   5.520
   89W        W 1086   5.269   3.839   4.784
   90W        W 1087   2.142   3.523   0.605
   91W        W 1088   2.032   0.198   0.976
   92W        W 1089   5.922   4.214   1.251
   93W        W 1090   6.591   0.284   2.179
   94W        W 1091   0.546   4.305   3.982
   95W        W 1092   2.239   4.351   6.496
   96W        W 1093   2.076   4.846   5.023
   97W        W 1094   7.405   3.890   1.145
   98W        W 1095   3.515   4.667   4.942
   99W        W 1096   0.394   3.751   3.247
  100W        W 1097   7.728   0.116   7.149
  101W        W 1098   2.906   4.490   0.247
  102W        W 1099   3.678   0.463   4.635
  103W        W 1100   3.544   5.250   4.852
  104W        W 1101   7.724   7.128   1.245
  105W        W 1102   4.011   0.806   7.564
  106W        W 1103   0.569   2.820   0.459
  107W        W 1104   5.281   7.196   5.432
  108W        W 1105   1.384   0.021   3.146
  109W        W 1106   0.853   7.400   1.141
  110W        W 1107   2.052   0.513   6.055
  111W        W 1108   3.922   2.298   4.099
  112W        W 1109   5.561   0.088   6.628
  113W        W 1110   2.810   7.885   0.487
  114W        W 1111   3.742   4.648   2.876
  115W        W 1112   2.552   4.984   3.352
  116W        W 1113   2.997   4.317   1.667
  117W        W 1114   1.083   6.169   5.039
  118W        W 1115   6.865   3.091   5.000
  119W        W 1116   3.354   0.720   1.981
  120W        W 1117   2.808   2.563   2.111
  121W        W 1118   4.883   2.466   7.680
  122W        W 1119   7.565   5.936   3.753
  123W        W 1120   4.190   2.869   5.895
  124W        W 1121   7.276   5.425   2.118
  125W        W 1122   6.424   7.762   5.954
  126W        W 1123   6.511   6.696   6.796
  127W        W 1124   0.846   5.585   3.603
  128W        W 1125   4.572   5.569   2.581
  129W        W 1126   3.491   7.120   0.669
  130W        W 1127   4.149   3.775   0.503
  131W        W 1128   4.457   1.760   0.882
  132W        W 1129   5.990   6.957   3.045
  133W        W 1130   3.216   4.376   2.811
  134W        W 1131   0.845   5.393   2.613
  135W        W 1132   2.615   3.713   1.550
  136W        W 1133   3.555   4.534   2.444
  137W        W 1134   4.290   5.252   2.235
  138W        W 1135   2.818   0.909   4.513
  139W        W 1136   7.292   5.438   1.135
  140W        W 1137   2.314   6.966   3.819
  141W        W 1138   5.000   7.333   7.344
  142W        W 1139   3.631   5.801   0.429
  143W        W 1140   6.190   6.168   2.866
  144W        W 1141   0.307   4.777   6.065
  145W        W 1142   0.738   4.462   0.887
  146W        W 1143   0.564   4.822   1.825
  147W        W 1144   4.805   5.036   6.253
  148W        W 1145   3.710   7.655   3.799
  149W        W 1146   7.245   2.690   7.612
  150W        W 1147   4.274   3.116   2.080
  151W        W 1148   5.786   5.809   0.667
  152W        W 1149   0.612   1.030   7.085
  153W        W 1150   2.590   4.619   1.098
  154W        W 1151   0.505   5.802   6.467
  155W        W 1152   1.273   0.657   6.567
  156W        W 1153   7.214   5.267   4.884
  157W        W 1154   2.861   6.097   1.457
  158W        W 1155   3.774   1.376   4.335
  159W        W 1156   0.347   7.146   3.114
  160W        W 1157   3.678   3.672   0.904
  161W        W 1158   1.469   6.671   5.382
  162W        W 1159   2.608   7.013   1.645
  163W        W 1160   6.324   2.586   2.869
  164W        W 1161   7.235   4.956   6.943
  165W        W 1162   3.061   4.133   3.268
  166W        W 1163   3.865   0.144   3.816
  167W        W 1164   7.603   5.308   4.528
  168W        W 1165   4.545   3.698   6.398
  169W        W 1166   3.100   4.999   4.788
  170W        W 1167   5.971   3.294   4.615
  171W        W 1168   2.201   3.642   2.003
  172W        W 1169   1.229   1.111   5.164
  173W        W 1170   2.950   7.365   2.256
  174W        W 1171   1.495   6.815   1.374
  175W        W 1172   0.800   1.759   3.437
  176W        W 1173   3.060   1.377   1.006
  177W        W 1174   6.225   4.142   0.710
  178W        W 1175   7.406   4.118   1.879
  179W        W 1176   2.654   3.201   0.720
  180W        W 1177   0.190   2.337   5.226
  181W        W 1178   2.368   0.020   4.519
  182W        W 1179   2.731   6.631   0.322
  183W        W 1180   5.736   6.311   2.823
  184W        W 1181   5.285   7.593   5.142
  185W        W 1182   7.071   3.024   0.035
  186W        W 1183   5.973   2.274   4.878
  187W        W 1184   3.485   4.051   4.160
  188W        W 1185   2.242   4.833   0.719
  189W        W 1186   5.497   6.915   4.538
  190W        W 1187   3.681   2.474   1.733
  191W        W 1188   7.495   0.885   7.167
  192W        W 1189   4.348   6.632   6.331
  193W        W 1190   0.068   0.328   2.342
  194W        W 1191   5.498   6.883   4.043
  195W        W 1192   5.849   0.071   4.560
  196W        W 1193   7.408   6.166   4.959
  197W        W 1194   2.499   6.618   5.107
  198W        W 1195   2.303   2.590   3.904
  199W        W 1196   0.907   7.773   0.823
  200W        W 1197   0.171   7.871   4.160
  201W        W 1198   0.862   3.544   6.816
  202W        W 1199   3.565   0.598   0.972
  203W        W 1200   7.556   5.320   3.163
  204W        W 1201   7.566   2.429   7.824
  205W        W 1202   1.325   5.009   3.067
  206W        W 1203   3.618   0.917   3.868
  207W        W 1204   0.626   1.066   4.390
  208W        W 1205   6.745   7.306   0.052
  209W        W 1206   6.058   3.145   0.224
  210W        W 1207   2.843   6.163   4.726
  211W        W 1208   1.682   5.368   1.491
  212W        W 1209   3.002   6.463   5.114
  213W        W 1210   6.988   1.672   0.535
  214W        W 1211   2.995   1.542   6.545
  215W        W 1212   7.851   2.088   6.810
  216W        W 1213   1.278   4.324   5.223
  217W        W 1214   1.768   4.770   0.877
  218W        W 1215   0.995   2.283   0.036
  219W        W 1216   1.393   3.615   0.220
  220W        W 1217   2.627   0.058   3.162
  221W        W 1218   6.572   3.457   4.822
  222W        W 1219   5.078   0.628   5.918
  223W        W 1220   1.257   2.988   3.634
  224W        W 1221   1.958   2.741   4.232
  225W        W 1222   1.209   3.848   3.757
  226W        W 1223   1.171   5.164   0.345
  227W        W 1224   1.930   4.403   3.622
  228W        W 1225   1.653   2.963   7.762
  229W        W 1226   7.497   7.503   2.703
  230W        W 1227   0.845   0.004   1.893
  231W        W 1228   3.685   4.593   1.142
  232W        W 1229   2.903   4.153   4.253
  233W        W 1230   4.763   6.233   1.425
  234W        W 1231   1.429   1.504   5.383
  235W        W 1232   3.548   0.353   4.147
  236W        W 1233   2.900   7.568   1.425
  237W        W 1234   1.814   4.223   0.816
  238W        W 1235   1.022   4.864   2.682
  239W        W 1236   5.328   7.070   1.319
  240W        W 1237   3.528   6.732   6.577
  241W        W 1238   7.641   5.803   3.075
  242W        W 1239   5.314   0.911   3.796
  243W        W 1240   5.943   4.663   6.881
  244W        W 1241   1.579   5.387   0.174
  245W        W 1242   0.395   0.226   3.592
  246W        W 1243   0.846   4.409   1.617
  247W        W 1244   7.103   5.197   3.607
  248W        W 1245   4.036   5.543   3.924
  249W        W 1246   7.672   6.207   4.515
  250W        W 1247   5.229   4.522   7.471
  251W        W 1248   1.375   3.430   1.164
  252W        W 1249   1.671   4.157   5.560
  253W        W 1250   7.044   7.394   2.370
  254W        W 1251   1.383   5.875   3.643
  255W        W 1252   5.422   3.768   7.884
  256W        W 1253   4.435   3.823   1.570
  257W        W 1254   2.804   4.582   3.176
  258W        W 1255   4.342   0.358   3.837
  259W        W 1256   3.775   3.827   1.334
  260W        W 1257   1.353   5.632   0.531
  261W        W 1258   0.524   2.258   3.431
  262W        W 1259   2.563   2.588   2.961
  263W        W 1260   3.545   7.783   0.149
  264W        W 1261   5.677   6.043   5.750
  265W        W 1262   0.087   7.329   0.257
  266W        W 1263   1.748   1.354   0.943
  267W        W 1264   1.742   1.862   7.722
  268W        W 1265   0.114   5.180   2.143
  269W        W 1266   2.731   4.151   6.901
  270W        W 1267   0.792   5.281   1.646
  271W        W 1268   2.350   4.732   5.471
  272W        W 1269   7.841   4.210   2.193
  273W        W 1270   4.992   0.675   6.877
  274W        W 1271   2.805   1.992   3.466
  275W        W 1272   6.557   0.721   1.160
  276W        W 1273   0.535   4.424   3.478
  277W        W 1274   1.979   2.104   6.411
  278W        W 1275   3.150   3.798   1.634
  279W        W 1276   4.848   2.907   0.667
  280W        W 1277   6.939   4.095   0.989
  281W        W 1278   2.481   2.362   6.005
  282W        W 1279   6.224   0.691   6.822
  283W        W 1280   0.632   3.857   7.284
  284W        W 1281   0.524   7.235   5.057
  285W        W 1282   6.416   6.936   7.574
  286W        W 1283   7.141   6.937   4.678
  287W        W 1284   4.635   4.146   6.694
  288W        W 1285   2.712   4.367   2.746
  289W        W 1286   6.697   4.696   3.271
  290W        W 1287   5.016   5.636   1.548
  291W        W 1288   7.176   0.692   0.412
  292W        W 1289   1.617   1.242   2.597
  293W        W 1290   2.148   5.449   2.572
  294W        W 1291   3.105   0.486   4.764
  295W        W 1292   7.241   7.263   5.065
  296W        W 1293   2.191   7.073   3.340
  297W        W 1294   5.704   5.121   3.873
  298W        W 1295   0.520   2.210   6.938
  299W        W 1296   7.000   5.390   5.643
  300W        W 1297   7.173   3.649   0.718
  301W        W 1298   6.816   7.096   0.521
  302W        W 1299   6.985   6.398   1.029
  303W        W 1300   1.004   5.143   2.218
  304W        W 1301   5.003   2.040   3.247
  305W        W 1302   3.324   5.958   2.361
  306W        W 1303   6.530   3.909   6.745
  307W        W 1304   2.133   6.592   5.974
  308W        W 1305   0.997   2.101   5.539
  309W        W 1306   2.328   1.500   4.662
  310W        W 1307   6.342   1.268   6.690
  311W        W 1308   1.301   6.551   2.309
  312W        W 1309   0.777   1.492   0.827
  313W        W 1310   2.547   1.040   6.531
  314W        W 1311   3.382   1.587   2.877
  315W        W 1312   7.406   4.704   5.392
  316W        W 1313   6.076   0.833   5.340
  317W        W 1314   2.768   3.633   7.114
  318W        W 1315   7.273   3.416   1.170
  319W        W 1316   5.999   6.606   7.491
  320W        W 1317   0.098   2.832   0.606
  321W        W 1318   2.497   5.124   1.054
  322W        W 1319   5.570   2.933   1.837
  323W        W 1320   7.768   3.432   4.713
  324W        W 1321   4.981   5.828   7.675
  325W        W 1322   4.575   2.868   4.304
  326W        W 1323   0.994   4.818   1.317
  327W        W 1324   4.481   7.411   7.134
  328W        W 1325   2.646   5.930   6.748
  329W        W 1326   6.496   1.454   1.899
  330W        W 1327   5.963   5.419   1.042
  331W        W 1328   4.818   5.202   6.966
  332W        W 1329   5.537   3.717   0.458
  333W        W 1330   4.323   2.836   0.552
  334W        W 1331   0.886   5.340   6.281
  335W        W 1332   0.306   1.856   4.245
  336W        W 1333   7.326   2.967   4.964
  337W        W 1334   4.214   5.143   5.601
  338W        W 1335   5.152   1.309   0.457
  339W        W 1336   4.337   3.721   2.079
  340W        W 1337   2.805   0.133   5.663
  341W        W 1338   6.462   2.244   2.499
  342W        W 1339   2.413   5.702   5.113
  343W        W 1340   2.356   4.649   0.183
  344W        W 1341   2.193   3.020   0.659
  345W        W 1342   3.073   3.541   4.860
  346W        W 1343   5.332   1.206   5.178
  347W        W 1344   5.119   3.721   2.772
  348W        W 1345   7.500   3.732   7.005
  349W        W 1346   4.362   4.703   3.421
  350W        W 1347   1.016   1.658   3.062
  351W        W 1348   6.397   4.930   5.059
  352W        W 1349   4.367   0.630   6.638
  353W        W 1350   0.573   6.303   0.535
  354W        W 1351   1.921   5.198   1.019
  355W        W 1352   0.523   0.084   2.524
  356W        W 1353   7.573   0.969   0.532
  357W        W 1354   1.603   4.785   3.774
  358W        W 1355   7.206   6.744   0.661
  359W        W 1356   6.265   3.953   2.164
  360W        W 1357   3.423   1.148   3.498
  361W        W 1358   0.241   3.307   1.316
  362W        W 1359   0.825   0.474   5.265
  363W        W 1360   5.184   4.770   1.939
  364W        W 1361   5.576   7.464   1.775
  365W        W 1362   1.752   2.802   3.190
  366W        W 1363   2.681   4.176   7.386
  367W        W 1364   6.379   5.864   6.323
  368W        W 1365   1.168   3.771   4.365
  369W        W 1366   3.601   2.142   5.778
  370W        W 1367   0.563   6.180   0.034
  371W        W 1368   0.615   1.893   5.790
  372W        W 1369   2.204   3.416   0.101
  373W        W 1370   7.823   1.835   5.082
  374W        W 1371   6.666   3.551   7.171
  375W        W 1372   4.694   0.868   1.349
  376W        W 1373   6.228   2.115   7.354
  377W        W 1374   0.166   5.804   4.064
  378W        W 1375   3.541   1.808   0.365
  379W        W 1376   6.492   5.083   5.554
  380W        W 1377   0.225   6.259   7.246
  381W        W 1378   0.928   1.731   3.962
  382W        W 1379   7.648   1.659   2.228
  383W        W 1380   2.513   1.885   7.289
  384W        W 1381   0.595   3.849   4.288
  385W        W 1382   6.042   1.134   3.217
  386W        W 1383   3.435   2.324   4.412
  387W        W 1384   4.477   3.244   7.145
  388W        W 1385   2.804   5.000   7.134
  389W        W 1386   5.180   3.234   1.965
  390W        W 1387   0.566   6.664   5.754
  391W        W 1388   7.344   7.811   6.781
  392W        W 1389   0.731   3.864   1.693
  393W        W 1390   7.213   1.344   6.940
  394W        W 1391   0.737   2.109   1.248
  395W        W 1392   6.718   4.841   6.852
  396W        W 1393   4.272   7.015   3.315
  397W        W 1394   5.310   2.779   5.362
  398W        W 1395   6.254   6.507   4.976
  399W        W 1396   0.761   1.889   0.418
  400W        W 1397   6.150   4.390   4.087
  401W        W 1398   4.450   6.418   4.240
  402W        W 1399   4.368   6.712   2.046
  403W        W 1400   4.959   3.917   5.607
  404W        W 1401   6.680   1.515   3.000
  405W        W 1402   0.909   0.784   7.552
  406W        W 1403   5.608   4.952   0.798
  407W        W 1404   3.147   0.050   4.128
  408W        W 1405   1.467   5.549   4.738
  409W        W 1406   1.401   0.343   7.024
  410W        W 1407   5.050   7.122   0.900
  411W        W 1408   5.090   3.496   3.901
  412W        W 1409   2.204   1.607   1.031
  413W        W 1410   0.423   3.184   2.254
  414W        W 1411   7.671   3.454   3.286
  415W        W 1412   0.360   0.848   7.618
  416W        W 1413   3.274   1.647   2.093
  417W        W 1414   1.492   2.380   7.774
  418W        W 1415   5.842   1.869   0.596
  419W        W 1416   6.914   3.731   3.693
  420W        W 1417   6.665   6.398   5.403
  421W        W 1418   7.928   0.867   6.951
  422W        W 1419   4.297   1.466   3.131
  423W        W 1420   0.487   6.888   0.434
  424W        W 1421   3.069   3.815   3.953
  425W        W 1422   2.757   4.564   4.506
  426W        W 1423   0.201   7.539   6.349
  427W        W 1424   1.523   3.008   5.442
  428W        W 1425   4.673   2.041   7.892
  429W        W 1426   2.859   1.881   4.174
  430W        W 1427   6.652   7.714   3.202
  431W        W 1428   2.427   3.180   2.033
  432W        W 1429   6.265   7.347   0.304
  433W        W 1430   7.092   2.642   5.770
  434W        W 1431   2.646   2.891   3.764
  435W        W 1432   2.531   3.557   4.853
  436W        W 1433   6.769   2.803   5.426
  437W        W 1434   1.299   3.182   0.545
  438W        W 1435   1.273   1.200   2.197
  439W        W 1436   7.412   3.771   5.062
  440W        W 1437   0.548   4.539   4.546
  441W        W 1438   0.391   3.199   3.101
  442W        W 1439   4.249   7.158   6.207
  443W        W 1440   4.071   4.230   5.690
  444W        W 1441   3.950   2.589   7.550
  445W        W 1442   7.042   2.932   0.499
  446W        W 1443   1.247   5.733   2.433
  447W        W 1444   4.685   3.375   1.712
  448W        W 1445   2.995   7.596   5.450
  449W        W 1446   6.508   7.541   1.735
  450W        W 1447   4.688   3.956   2.447
  451W        W 1448   6.934   7.511   5.920
  452W        W 1449   5.246   2.577   1.201
  453W        W 1450   2.135   5.526   1.287
  454W        W 1451   0.639   4.149   1.266
  455W        W 1452   2.219   2.691   5.617
  456W        W 1453   1.810   1.959   3.307
  457W        W 1454   2.006   2.279   5.823
  458W        W 1455   5.703   3.147   5.174
  459W        W 1456   5.744   1.778   2.600
  460W        W 1457   6.534   2.133   3.736
  461W        W 1458   2.697   7.460   4.056
  462W        W 1459   4.633   0.642   4.197
  463W        W 1460   3.496   3.235   4.749
  464W        W 1461   2.983   1.256   3.038
  465W        W 1462   5.067   6.904   3.109
  466W        W 1463   0.177   6.841   5.469
  467W        W 1464   0.100   5.858   0.041
  468W        W 1465   5.120   6.472   2.237
  469W        W 1466   3.346   3.366   2.062
  470W        W 1467   4.943   3.212   7.333
  471W        W 1468   2.905   0.493   5.326
  472W        W 1469   1.813   1.775   4.665
  473W        W 1470   1.215   4.687   0.844
  474W        W 1471   3.028   7.407   0.527
  475W        W 1472   7.582   0.005   3.042
  476W        W 1473   0.201   3.645   6.965
  477W        W 1474   7.277   4.794   2.733
  478W        W 1475   0.830   1.719   7.354
  479W        W 1476   4.353   3.959   0.011
  480W        W 1477   4.966   2.867   6.984
  481W        W 1478   1.262   3.033   5.054
  482W        W 1479   4.987   7.461   7.894
  483W        W 1480   7.222   7.579   7.508
  484W        W 1481   7.792   6.749   0.286
  485W        W 1482   7.772   0.232   5.642
  486W        W 1483   5.982   5.966   5.055
  487W        W 1484   0.497   0.157   4.251
  488W        W 1485   6.420   7.919   0.320
  489W        W 1486   5.940   6.054   0.239
  490W        W 1487   7.318   0.141   6.262
  491W        W 1488   0.889   5.918   0.791
  492W        W 1489   0.322   3.167   4.880
  493W        W 1490   6.479   5.093   4.224
  494W        W 1491   4.184   0.803   1.556
  495W        W 1492   5.660   4.132   7.602
  496W        W 1493   1.283   4.695   6.268
  497W        W 1494   1.247   6.209   5.510
  498W        W 1495   4.110   1.383   5.752
  499W        W 1496   4.118   4.271   1.307
  500W        W 1497   1.712   6.500   6.804
  501W        W 1498   7.238   4.283   6.320
  502W        W 1499   0.324   3.610   2.813
  503W        W 1500   0.717   3.486   0.585
  504W        W 1501   6.343   2.126   3.278
  505W        W 1502   3.835   1.255   7.451
  506W        W 1503   3.187   0.885   5.582
  507W        W 1504   5.502   3.440   1.015
  508W        W 1505   0.033   4.036   6.689
  509W        W 1506   3.401   7.094   6.261
  510W        W 1507   7.723   6.265   7.387
  511W        W 1508   5.805   4.808   1.212
  512W        W 1509   6.441   5.309   7.423
  513W        W 1510   5.144   5.357   7.685
  514W        W 1511   7.520   2.191   7.253
  515W        W 1512   4.744   5.516   5.387
  516W        W 1513   3.375   4.107   0.903
  517W        W 1514   3.017   5.364   3.640
  518W        W 1515   0.318   4.358   1.668
  519W        W 1516   0.425   4.345   5.912
  520W        W 1517   2.542   1.777   2.588
  521W        W 1518   7.378   5.867   1.885
  522W        W 1519   5.808   0.551   0.559
  523W        W 1520   5.204   3.543   1.426
  524W        W 1521   2.582   7.435   4.585
  525W        W 1522   2.080   0.539   4.640
  526W        W 1523   4.071   2.436   0.616
  527W        W 1524   5.158   5.228   6.585
  528W        W 1525   4.606   5.967   5.119
  529W        W 1526   2.536   0.558   5.816
  530W        W 1527   7.413   4.681   5.948
  531W        W 1528   7.991   5.633   6.639
  532W        W 1529   3.832   7.376   0.280
  533W        W 1530   2.289   0.991   6.095
  534W        W 1531   2.265   7.063   5.248
  535W        W 1532   2.160   2.927   2.892
  536W        W 1533   4.993   5.267   2.821
  537W        W 1534   5.627   3.686   6.405
  538W        W 1535   7.259   2.940   1.332
  539W        W 1536   2.877   6.251   5.587
  540W        W 1537   1.227   1.237   0.955
  541W        W 1538   1.792   4.490   5.249
  542W        W 1539   3.396   7.434   1.537
  543W        W 1540   1.236   7.565   4.667
  544W        W 1541   3.495   4.730   6.042
  545W        W 1542   5.740   1.246   1.262
  546W        W 1543   3.007   1.081   6.393
  547W        W 1544   6.796   4.395   4.888
  548W        W 1545   3.604   3.499   6.074
  549W        W 1546   5.221   1.061   6.166
  550W        W 1547   4.930   6.797   1.256
  551W        W 1548   2.289   3.106   4.016
  552W        W 1549   5.397   7.156   7.021
  553W        W 1550   1.186   5.085   5.902
  554W        W 1551   5.230   6.346   6.416
  555W        W 1552   7.176   0.904   7.736
  556W        W 1553   2.805   4.665   6.760
  557W        W 1554   6.100   1.214   7.252
  558W        W 1555   6.460   0.201   5.175
  559W        W 1556   4.819   3.146   4.692
  560W        W 1557   7.781   7.076   4.202
  561W        W 1558   5.101   1.691   1.163
  562W        W 1559   6.234   3.081   6.213
  563W        W 1560   6.922   4.502   4.361
  564W        W 1561   2.383   7.524   6.951
  565W        W 1562   3.158   2.409   3.475
  566W        W 1563   6.503   3.116   0.416
  567W        W 1564   5.289   4.868   1.395
  568W        W 1565   0.424   7.201   6.711
  569W        W 1566   0.152   2.032   6.016
  570W        W 1567   7.587   4.028   2.743
  571W        W 1568   3.216   2.553   6.908
  572W        W 1569   4.125   0.137   4.980
  573W        W 1570   4.016   0.967   6.795
  574W        W 1571   0.603   5.519   7.381
  575W        W 1572   5.652   1.070   7.518
  576W        W 1573   1.500   7.354   5.865
  577W        W 1574   3.738   3.949   6.893
  578W        W 1575   6.105   3.523   5.085
  579W        W 1576   1.396   5.128   1.171
  580W        W 1577   5.814   6.463   4.070
  581W        W 1578   6.426   6.802   4.629
  582W        W 1579   1.918   1.408   3.199
  583W        W 1580   7.084   0.246   7.757
  584W        W 1581   7.535   3.451   6.572
  585W        W 1582   4.761   4.458   7.624
  586W        W 1583   5.476   5.506   3.062
  587W        W 1584   2.863   3.651   4.411
  588W        W 1585   3.124   4.803   5.673
  589W        W 1586   3.772   5.184   5.908
  590W        W 1587   0.942   3.312   3.162
  591W        W 1588   7.696   4.389   5.619
  592W        W 1589   3.732   1.920   4.338
  593W        W 1590   2.483   6.525   4.522
  594W        W 1591   5.663   7.312   0.318
  595W        W 1592   6.666   1.431   7.086
  596W        W 1593   4.791   5.033   4.367
  597W        W 1594   6.520   5.539   5.383
  598W        W 1595   3.053   0.148   6.574
  599W        W 1596   2.648   2.429   4.900
  600W        W 1597   4.099   7.265   7.501
  601W        W 1598   7.142   7.191   3.641
  602W        W 1599   5.414   4.967   5.019
  603W        W 1600   3.923   5.851   2.934
  604W        W 1601   3.634   0.799   1.537
  605W        W 1602   7.646   0.601   5.030
  606W        W 1603   0.747   7.548   4.601
  607W        W 1604   7.994   6.359   3.127
  608W        W 1605   4.654   7.471   0.948
  609W        W 1606   5.444   5.721   6.519
  610W        W 1607   1.008   3.978   2.077
  611W        W 1608   0.677   1.078   1.695
  612W        W 1609   7.017   4.256   1.494
  613W        W 1610   6.891   6.336   5.858
  614W        W 1611   5.465   1.586   6.276
  615W        W 1612   1.659   3.056   1.384
  616W        W 1613   1.408   3.908   7.214
  617W        W 1614   1.016   3.415   6.237
  618W        W 1615   5.187   5.137   2.376
  619W        W 1616   5.945   7.734   0.261
  620W        W 1617   0.843   5.491   6.891
  621W        W 1618   7.895   6.664   1.385
  622W        W 1619   4.583   7.146   2.891
  623W        W 1620   1.597   5.021   4.554
  624W        W 1621   4.845   3.903   4.494
  625W        W 1622   3.044   4.869   6.206
  626W        W 1623   7.135   0.546   6.432
  627W        W 1624   2.900   5.411   5.076
  628W        W 1625   3.065   2.670   2.662
  629W        W 1626   3.117   0.315   2.395
  630W        W 1627   6.485   0.695   2.439
  631W        W 1628   2.286   5.863   6.341
  632W        W 1629   3.708   0.846   7.169
  633W        W 1630   1.212   6.050   4.135
  634W        W 1631   4.418   4.685   2.333
  635W        W 1632   5.465   5.844   3.535
  636W        W 1633   3.570   2.692   4.939
  637W        W 1634   3.117   3.245   0.875
  638W        W 1635   3.302   5.552   5.361
  639W        W 1636   3.398   6.302   2.719
  640W        W 1637   7.441   2.521   4.771
  641W        W 1638   5.560   3.464   4.792
  642W        W 1639   4.183   0.432   5.722
  643W        W 1640   3.636   4.251   6.241
  644W        W 1641   4.758   3.178   2.262
  645W        W 1642   1.587   1.163   3.531
  646W        W 1643   0.063   3.334   1.877
  647W        W 1644   4.492   2.315   5.164
  648W        W 1645   6.124   5.431   3.999
  649W        W 1646   2.929   3.730   6.663
  650W        W 1647   4.720   2.586   0.151
  651W        W 1648   3.666   1.042   2.376
  652W        W 1649   5.543   6.725   3.066
  653W        W 1650   4.428   4.893   7.861
  654W        W 1651   0.894   5.629   7.825
  655W        W 1652   1.349   4.504   5.750
  656W        W 1653   5.809   4.553   3.736
  657W        W 1654   7.200   6.199   0.631
  658W        W 1655   7.508   3.429   0.331
  659W        W 1656   0.355   1.834   0.726
  660W        W 1657   3.006   4.287   2.349
  661W        W 1658   7.125   2.817   3.551
  662W        W 1659   6.192   5.055   6.704
  663W        W 1660   0.096   5.650   2.097
  664W        W 1661   4.905   1.783   2.274
  665W        W 1662   0.547   1.496   2.918
  666W        W 1663   0.045   5.409   0.230
  667W        W 1664   3.246   0.574   7.868
  668W        W 1665   6.209   6.210   5.412
  669W        W 1666   0.915   3.151   0.918
  670W        W 1667   3.496   1.107   2.959
  671W        W 1668   1.212   3.620   1.771
  672W        W 1669   1.071   5.493   0.947
  673W        W 1670   0.202   1.289   7.218
  674W        W 1671   6.261   0.329   0.226
  675W        W 1672   7.595   7.058   4.752
  676W        W 1673   5.221   7.081   1.783
  677W        W 1674   4.346   7.524   2.685
  678W        W 1675   2.680   2.372   6.812
  679W        W 1676   5.840   5.692   4.668
  680W        W 1677   2.766   1.303   5.679
  681W        W 1678   6.359   6.594   1.848
  682W        W 1679   5.430   2.222   2.987
  683W        W 1680   4.265   1.979   4.152
  684W        W 1681   0.352   0.725   0.326
  685W        W 1682   5.441   5.763   1.841
  686W        W 1683   0.531   2.365   5.632
  687W        W 1684   2.954   1.700   1.674
  688W        W 1685   7.621   3.237   5.727
  689W        W 1686   5.750   2.488   7.144
  690W        W 1687   1.721   3.936   3.585
  691W        W 1688   3.599   7.066   1.749
  692W        W 1689   4.090   4.384   7.175
  693W        W 1690   5.545   4.090   2.682
  694W        W 1691   2.264   5.237   2.081
  695W        W 1692   5.110   0.302   7.294
  696W        W 1693   2.502   6.522   3.966
  697W        W 1694   5.233   2.606   3.191
  698W        W 1695   5.567   7.716   0.647
  699W        W 1696   3.390   3.753   2.940
  700W        W 1697   3.202   6.231   7.403
  701W        W 1698   1.524   6.920   4.096
  702W        W 1699   1.421   1.412   3.028
  703W        W 1700   2.250   3.925   2.825
  704W        W 1701   2.017   4.018   0.446
  705W        W 1702   2.558   2.666   6.394
  706W        W 1703   4.214   0.131   6.769
  707W        W 1704   7.651   2.160   5.691
  708W        W 1705   7.147   2.379   4.286
  709W        W 1706   6.438   3.904   5.094
  710W        W 1707   2.562   1.742   0.562
  711W        W 1708   7.000   6.917   1.133
  712W        W 1709   3.171   7.858   5.933
  713W        W 1710   5.918   1.346   4.481
  714W        W 1711   7.354   5.835   6.709
  715W        W 1712   1.022   7.298   5.068
  716W        W 1713   1.637   3.652   1.536
  717W        W 1714   4.056   4.719   5.852
  718W        W 1715   5.083   0.796   4.373
  719W        W 1716   3.569   7.764   1.852
  720W        W 1717   3.311   0.291   3.292
  721W        W 1718   1.888   2.036   1.124
  722W        W 1719   3.141   5.918   4.320
  723W        W 1720   1.164   5.531   1.461
  724W        W 1721   1.054   6.590   4.219
  725W        W 1722   5.900   4.482   7.822
  726W        W 1723   3.922   4.919   2.477
  727W        W 1724   3.203   4.382   3.852
  728W        W 1725   3.175   1.203   2.536
  729W        W 1726   4.765   0.817   1.985
  730W        W 1727   0.138   4.991   3.804
  731W        W 1728   6.678   2.203   6.575
  732W        W 1729   4.582   7.078   7.520
  733W        W 1730   7.080   0.317   2.566
  734W        W 1731   7.047   0.066   2.996
  735W        W 1732   1.420   6.824   7.049
  736W        W 1733   5.599   1.795   1.442
  737W        W 1734   1.079   1.219   7.341
  738W        W 1735   6.324   7.800   5.275
  739W        W 1736   3.814   6.348   3.067
  740W        W 1737   0.638   6.022   7.278
  741W        W 1738   7.838   7.938   6.760
  742W        W 1739   5.724   3.797   7.221
  743W        W 1740   4.748   0.991   5.906
  744W        W 1741   1.694   6.996   6.608
  745W        W 1742   6.550   6.219   6.919
  746W        W 1743   4.141   2.484   1.491
  747W        W 1744   4.366   4.879   1.892
  748W        W 1745   3.890   4.464   5.227
  749W        W 1746   4.322   4.220   2.198
  750W        W 1747   7.712   6.556   5.491
  751W        W 1748   6.360   0.096   6.675
  752W        W 1749   5.137   0.074   6.827
  753W        W 1750   1.201   2.145   0.449
  754W        W 1751   6.194   7.259   6.684
  755W        W 1752   5.710   6.609   4.849
  756W        W 1753   3.286   6.929   2.196
  757W        W 1754   7.891   6.294   0.069
  758W        W 1755   1.462   2.385   3.446
  759W        W 1756   6.538   2.591   5.035
  760W        W 1757   6.993   6.038   1.494
  761W        W 1758   0.372   5.154   0.568
  762W        W 1759   3.695   6.274   7.428
  763W        W 1760   1.536   1.917   5.082
  764W        W 1761   7.188   6.624   5.549
  765W        W 1762   3.745   5.473   2.203
  766W        W 1763   2.387   1.610   3.010
  767W        W 1764   2.750   7.132   5.512
  768W        W 1765   1.472   4.161   3.223
  769W        W 1766   3.574   6.717   1.410
  770W        W 1767   2.298   5.809   2.189
  771W        W 1768   1.489   6.440   3.203
  772W        W 1769   5.793   4.260   3.313
  773W        W 1770   6.593   6.010   1.145
  774W        W 1771   5.584   4.019   1.010
  775W        W 1772   7.551   2.447   6.509
  776W        W 1773   3.710   2.616   7.064
  777W        W 1774   2.771   3.120   1.212
  778W        W 1775   7.193   3.845   6.617
  779W        W 1776   3.496   1.347   0.700
  780W        W 1777   4.900   1.727   0.701
  781W        W 1778   5.959   1.680   4.854
  782W        W 1779   4.010   1.473   0.865
  783W        W 1780   3.907   1.399   6.185
  784W        W 1781   2.220   5.611   5.922
  785W        W 1782   5.565   4.482   1.544
  786W        W 1783   0.017   2.878   5.815
  787W        W 1784   4.875   6.902   5.078
  788W        W 1785   0.603   3.088   3.538
  789W        W 1786   2.782   0.548   7.621
  790W        W 1787   0.824   2.973   4.029
  791W        W 1788   3.367   0.318   5.128
  792W        W 1789   4.797   7.291   3.383
  793W        W 1790   2.473   6.320   6.284
  794W        W 1791   2.664   7.910   6.859
  795W        W 1792   7.209   0.112   5.633
  796W        W 1793   5.711   6.140   6.348
  797W        W 1794   6.674   2.198   4.234
  798W        W 1795   1.742   2.104   3.805
  799W        W 1796   3.532   5.255   7.353
  800W        W 1797   6.076   2.859   0.746
  801W        W 1798   6.226   3.159   6.787
  802W        W 1799   6.840   2.037   1.491
  803W        W 1800   4.746   7.648   6.686
  804W        W 1801   6.275   7.544   1.196
  805W        W 1802   1.311   2.704   1.901
  806W        W 1803   5.397   2.054   0.944
  807W        W 1804   6.285   2.643   0.354
  808W        W 1805   3.694   0.903   0.452
  809W        W 1806   1.893   0.839   0.304
  810W        W 1807   0.295   2.665   3.303
  811W        W 1808   5.081   3.448   5.746
  812W        W 1809   7.060   2.886   2.249
  813W        W 1810   7.262   3.375   4.721
  814W        W 1811   4.021   3.014   6.903
  815W        W 1812   0.889   0.470   6.247
  816W        W 1813   1.938   1.209   7.165
  817W        W 1814   2.027   1.006   3.859
  818W        W 1815   5.653   2.313   7.951
  819W        W 1816   0.735   2.826   3.144
  820W        W 1817   1.304   4.926   7.471
  821W        W 1818   4.825   4.081   6.240
  822W        W 1819   5.556   0.551   6.714
  823W        W 1820   6.728   3.740   2.280
  824W        W 1821   5.114   4.551   0.243
  825W        W 1822   7.038   6.970   1.620
  826W        W 1823   3.822   4.518   1.635
  827W        W 1824   4.001   1.172   5.234
  828W        W 1825   0.496   5.291   6.603
  829W        W 1826   3.944   7.955   0.814
  830W        W 1827   0.546   3.519   6.411
  831W        W 1828   2.529   7.416   0.197
  832W        W 1829   0.703   1.015   5.857
  833W        W 1830   7.105   6.582   2.538
  834W        W 1831   3.681   1.747   6.533
  835W        W 1832   5.293   4.796   6.354
  836W        W 1833   0.915   3.159   7.669
  837W        W 1834   1.332   0.205   1.773
  838W        W 1835   5.235   5.420   5.229
  839W        W 1836   3.351   4.753   2.063
  840W        W 1837   5.804   2.667   1.240
  841W        W 1838   5.441   2.297   0.320
  842W        W 1839   4.362   1.525   5.319
  843W        W 1840   3.087   7.268   4.331
  844W        W 1841   2.723   7.498   7.370
  845W        W 1842   1.157   0.291   0.019
  846W        W 1843   0.068   3.400   6.557
  847W        W 1844   3.296   3.517   5.610
  848W        W 1845   4.511   5.557   4.874
  849W        W 1846   5.860   4.474   0.835
  850W        W 1847   3.140   5.477   4.628
  851W        W 1848   4.391   2.575   3.360
  852W        W 1849   2.906   6.379   4.289
  853W        W 1850   2.871   6.934   7.424
  854W        W 1851   0.478   0.095   5.483
  855W        W 1852   1.796   1.134   5.320
  856W        W 1853   4.092   2.239   3.547
  857W        W 1854   1.500   0.397   0.922
  858W        W 1855   5.036   3.241   1.043
  859W        W 1856   6.763   3.246   7.585
  860W        W 1857   7.846   6.979   6.494
  861W        W 1858   4.566   3.157   5.852
  862W        W 1859   6.608   1.653   0.232
  863W        W 1860   1.326   5.599   6.604
  864W        W 1861   0.515   7.604   2.725
  865W        W 1862   2.104   3.453   2.841
  866W        W 1863   6.428   6.822   5.303
  867W        W 1864   5.360   4.774   6.942
  868W        W 1865   3.958   6.118   6.932
  869W        W 1866   4.563   5.871   1.652
  870W        W 1867   0.128   4.512   3.746
  871W        W 1868   0.526   5.648   5.930
  872W        W 1869   6.709   2.108   2.927
  873W        W 1870   4.465   5.572   7.382
  874W        W 1871   6.941   6.530   3.030
  875W        W 1872   5.805   4.177   6.037
  876W        W 1873   6.670   0.107   7.514
  877W        W 1874   5.202   7.213   4.833
  878W        W 1875   0.297   4.506   5.010
  879W        W 1876   0.271   4.677   5.534
  880W        W 1877   4.491   2.303   7.446
  881W        W 1878   4.296   4.753   2.859
  882W        W 1879   2.726   5.544   0.325
  883W        W 1880   3.582   0.331   2.203
  884W        W 1881   5.851   5.987   3.251
  885W        W 1882   4.864   5.840   1.046
  886W        W 1883   6.844   3.175   3.995
  887W        W 1884   0.518   3.301   1.767
  888W        W 1885   5.552   1.919   4.293
  889W        W 1886   6.644   6.410   3.846
  890W        W 1887   5.767   1.207   5.472
  891W        W 1888   7.590   5.210   7.218
  892W        W 1889   3.918   3.500   2.945
  893W        W 1890   7.745   7.456   3.841
  894W        W 1891   1.428   5.400   5.470
  895W        W 1892   7.012   3.763   1.423
  896W        W 1893   2.536   2.445   3.485
  897W        W 1894   1.085   2.146   3.233
  898W        W 1895   6.972   6.161   3.542
  899W        W 1896   0.454   3.077   0.898
  900W        W 1897   1.276   5.980   1.156
  901W        W 1898   3.757   0.708   5.103
  902W        W 1899   4.030   5.915   7.447
  903W        W 1900   5.179   7.568   1.086
  904W        W 1901   3.198   1.616   3.374
  905W        W 1902   7.319   5.022   0.938
  906W        W 1903   6.514   6.061   2.216
  907W        W 1904   3.013   2.894   6.527
  908W        W 1905   0.221   2.667   1.105
  909W        W 1906   5.527   2.920   0.879
  910W        W 1907   0.082   5.279   5.631
  911W        W 1908   6.018   0.832   1.040
  912W        W 1909   3.547   2.545   2.758
  913W        W 1910   2.600   5.145   3.858
  914W        W 1911   5.689   2.920   2.350
  915W        W 1912   6.357   6.420   4.224
  916W        W 1913   2.504   2.739   0.926
  917W        W 1914   2.973   3.959   2.779
  918W        W 1915   5.555   0.154   7.125
  919W        W 1916   0.784   5.443   0.582
  920W        W 1917   4.456   7.403   5.796
  921W        W 1918   3.083   2.675   4.172
  922W        W 1919   4.158   4.184   3.586
  923W        W 1920   2.269   6.175   1.319
  924W        W 1921   0.625   5.859   1.817
  925W        W 1922   4.490   2.764   5.433
  926W        W 1923   1.819   5.613   0.564
  927W        W 1924   2.220   4.757   6.135
  928W        W 1925   6.730   3.597   1.028
  929W        W 1926   7.406   6.131   6.248
  930W        W 1927   7.332   7.423   1.373
  931W        W 1928   4.591   4.252   3.345
  932W        W 1929   4.236   3.011   7.500
  933W        W 1930   1.180   6.272   4.569
  934W        W 1931   3.501   0.218   0.224
  935W        W 1932   3.316   5.053   5.264
  936W        W 1933   7.113   1.939   1.921
  937W        W 1934   7.415   4.354   2.392
  938W        W 1935   2.056   1.011   2.319
  939W        W 1936   6.751   7.606   6.813
  940W        W 1937   3.062   5.826   2.898
  941W        W 1938   6.567   3.433   6.491
  942W        W 1939   4.902   7.280   1.376
  943W        W 1940   1.908   5.662   4.953
  944W        W 1941   5.422   4.965   0.270
  945W        W 1942   6.280   6.292   7.885
  946W        W 1943   0.941   6.014   0.318
  947W        W 1944   6.389   7.684   2.789
  948W        W 1945   0.843   4.714   3.298
  949W        W 1946   1.900   0.251   4.031
  950W        W 1947   5.108   6.126   4.576
  951W        W 1948   5.444   2.473   2.541
  952W        W 1949   5.227   4.048   0.225
  953W        W 1950   5.713   1.745   1.961
  954W        W 1951   2.799   3.654   3.432
  955W        W 1952   3.530   7.966   7.123
  956W        W 1953   5.449   3.091   3.041
  957W        W 1954   5.641   5.643   3.982
  958W        W 1955   6.335   5.614   1.370
  959W        W 1956   0.195   1.231   0.158
  960W        W 1957   0.354   7.844   6.757
  961W        W 1958   7.146   0.763   5.058
  962W        W 1959   2.580   4.977   6.336
  963W        W 1960   1.569   5.996   5.173
  964W        W 1961   4.949   4.583   3.597
  965W        W 1962   3.142   6.756   5.561
  966W        W 1963   1.693   3.645   5.545
  967W        W 1964   1.664   3.058   4.620
  968W        W 1965   6.564   2.752   0.738
  969W        W 1966   4.830   4.724   1.087
  970W        W 1967   3.505   2.500   0.225
  971W        W 1968   5.833   5.746   1.482
  972W        W 1969   7.628   3.244   1.543
  973W        W 1970   5.518   2.090   3.465
  974W        W 1971   6.436   0.366   3.845
  975W        W 1972   7.726   2.999   7.922
  976W        W 1973   6.981   4.385   5.350
  977W        W 1974   1.697   7.012   2.333
  978W        W 1975   2.470   5.045   6.798
  979W        W 1976   0.296   1.363   4.181
  980W        W 1977   0.897   3.350   1.464
  981W        W 1978   3.471   5.128   2.408
  982W        W 1979   3.724   1.509   3.200
  983W        W 1980   1.622   3.374   2.600
  984W        W 1981   4.354   7.543   3.313
  985W        W 1982   7.034   5.787   3.834
  986W        W 1983   5.145   6.054   6.881
  987W        W 1984   3.004   0.352   0.136
  988W        W 1985   4.364   0.457   7.512
  989W        W 1986   0.452   4.205   7.641
  990W        W 1987   1.032   4.046   6.922
  991W        W 1988   2.368   6.709   7.733
  992W        W 1989   5.465   5.845   0.242
  993W        W 1990   3.378   4.676   0.238
  994W        W 1991   3.341   5.214   1.690
  995W        W 1992   5.398   2.125   6.481
  996W        W 1993   4.562   1.263   0.791
  997W        W 1994   2.826   6.337   7.059
  998W        W 1995   4.891   6.400   5.183
  999W        W 1996   0.909   2.548   5.958
 1000W        W 1997   1.821   0.355   0.484
 1001W        W 1998   0.775   7.207   6.385
 1002W        W 1999   1.403   1.589   1.921
 1003W        W 2000   1.342   1.666   2.598
 1004W        W 2001   2.191   2.901   7.545
 1005W        W 2002   6.060   1.427   2.206
 1006W        W 2003   5.338   1.827   0.456
 1007W        W 2004   2.874   4.892   1.459
 1008W        W 2005   1.834   0.195   2.522
 1009W        W 2006   6.239   7.300   5.351
 1010W        W 2007   4.969   4.629   2.548
 1011W        W 2008   5.149   6.670   6.909
 1012W        W 2009   6.085   1.512   6.300
 1013W        W 2010   7.465   2.577   3.265
 1014W        W 2011   1.638   2.544   6.727
 1015W        W 2012   0.385   4.034   4.797
 1016W        W 2013   6.067   3.769   3.175
 1017W        W 2014   0.482   1.379   5.674
 1018W        W 2015   0.242   4.853   3.310
 1019W        W 2016   3.665   3.092   5.783
 1020W        W 2017   5.309   6.489   1.442
 1021W        W 2018   3.938   1.744   6.996
 1022W        W 2019   0.524   3.550   3.870
 1023W        W 2020   4.999   6.683   5.574
 1024W        W 2021   1.681   4.256   4.748
 1025W        W 2022   5.440   4.797   3.544
 1026W        W 2023   4.939   7.991   5.248
 1027W        W 2024   1.130   4.601   0.022
 1028W        W 2025   0.559   1.736   5.308
 1029W        W 2026   1.912   7.623   0.138
 1030W        W 2027   5.143   1.691   1.760
 1031W        W 2028   6.608   3.807   1.743
 1032W        W 2029   3.360   2.001   4.042
 1033W        W 2030   1.248   6.889   3.215
 1034W        W 2031   0.386   0.180   0.625
 1035W        W 2032   4.866   2.164   0.978
 1036W        W 2033   7.818   0.030   0.051
 1037W        W 2034   1.154   2.878   1.361
 1038W        W 2035   1.303   5.078   1.776
 1039W        W 2036   2.460   5.193   5.213
 1040W        W 2037   3.241   7.779   2.356
 1041W        W 2038   6.462   0.782   4.379
 1042W        W 2039   5.998   1.762   4.130
 1043W        W 2040   1.353   3.223   6.577
 1044W        W 2041   6.247   1.885   2.814
 1045W        W 2042   0.791   3.735   5.499
 1046W        W 2043   1.278   1.701   4.585
 1047W        W 2044   6.061   1.630   1.049
 1048W        W 2045   4.359   1.204   1.277
 1049W        W 2046   7.505   0.577   6.032
 1050W        W 2047   2.201   1.277   5.682
 1051W        W 2048   4.863   6.071   2.328
 1052W        W 2049   0.007   7.473   7.485
 1053W        W 2050   0.304   6.595   0.094
 1054W        W 2051   6.980   3.724   5.751
 1055W        W 2052   0.667   1.209   3.347
 1056W        W 2053   6.712   4.690   7.639
 1057W        W 2054   1.447   1.939   2.961
 1058W        W 2055   3.201   5.503   0.365
 1059W        W 2056   3.084   1.142   1.986
 1060W        W 2057   5.634   6.317   5.254
 1061W        W 2058   0.985   5.964   3.333
 1062W        W 2059   6.265   4.431   5.015
 1063W        W 2060   6.228   7.698   3.540
 1064W        W 2061   3.817   0.298   5.391
 1065W        W 2062   2.476   0.913   7.524
 1066W        W 2063   4.966   3.303   3.037
 1067W        W 2064   7.453   2.320   5.309
 1068W        W 2065   7.640   7.552   7.172
 1069W        W 2066   5.950   2.835   4.406
 1070W        W 2067   3.496   0.941   7.629
 1071W        W 2068   3.541   0.154   2.723
 1072W        W 2069   3.276   2.798   1.962
 1073W        W 2070   3.938   4.747   0.571
 1074W        W 2071   5.639   1.258   2.512
 1075W        W 2072   3.073   6.453   2.278
 1076W        W 2073   1.672   7.002   0.107
 1077W        W 2074   4.136   5.789   0.177
 1078W        W 2075   6.582   2.142   0.206
 1079W        W 2076   3.323   6.757   7.436
 1080W        W 2077   7.066   7.436   4.566
 1081W        W 2078   7.386   2.328   6.003
 1082W        W 2079   3.152   1.405   6.034
 1083W        W 2080   4.086   7.244   4.600
 1084W        W 2081   7.787   1.222   1.973
 1085W        W 2082   0.973   2.798   0.005
 1086W        W 2083   2.719   3.061   6.067
 1087W        W 2084   0.311   2.970   6.510
 1088W        W 2085   3.989   1.950   5.393
 1089W        W 2086   4.207   2.560   7.067
 1090W        W 2087   3.163   6.994   1.347
 1091W        W 2088   3.157   2.765   4.711
 1092W        W 2089   7.860   4.910   5.399
 1093W        W 2090   7.415   4.168   0.704
 1094W        W 2091   6.256   1.267   4.194
 1095W        W 2092   3.739   5.514   1.710
 1096W        W 2093   3.727   2.511   2.244
 1097W        W 2094   4.923   1.444   5.399
 1098W        W 2095   2.640   2.948   4.716
 1099W        W 2096   3.330   4.647   6.497
 1100W        W 2097   2.232   2.089   3.938
 1101W        W 2098   7.015   5.663   5.231
 1102W        W 2099   3.494   5.968   3.092
 1103W        W 2100   5.105   5.474   6.177
 1104W        W 2101   7.078   6.166   5.351
 1105W        W 2102   0.562   6.696   4.224
 1106W        W 2103   7.264   2.924   4.477
 1107W        W 2104   4.618   4.853   5.774
 1108W        W 2105   5.446   0.715   3.238
 1109W        W 2106   1.736   7.025   0.934
 1110W        W 2107   4.487   5.108   6.605
 1111W        W 2108   3.494   1.117   5.266
 1112W        W 2109   6.668   2.283   5.422
 1113W        W 2110   7.317   2.931   5.472
 1114W        W 2111   3.832   3.164   3.826
 1115W        W 2112   1.718   5.164   5.019
 1116W        W 2113   5.900   4.294   2.348
 1117W        W 2114   4.167   7.871   5.845
 1118W        W 2115   0.744   0.647   3.507
 1119W        W 2116   0.721   5.777   4.064
 1120W        W 2117   2.224   4.029   1.619
 1121W        W 2118   6.049   4.942   5.816
 1122W        W 2119   4.093   7.270   4.077
 1123W        W 2120   4.486   1.512   3.592
 1124W        W 2121   6.821   2.684   4.519
 1125W        W 2122   7.591   1.988   3.057
 1126W        W 2123   0.176   4.104   4.233
 1127W        W 2124   4.662   3.662   5.389
 1128W        W 2125   3.102   2.998   5.602
 1129W        W 2126   6.150   4.255   5.563
 1130W        W 2127   2.932   6.778   4.683
 1131W        W 2128   0.834   4.074   5.082
 1132W        W 2129   0.487   1.568   6.136
 1133W        W 2130   3.816   3.033   2.810
 1134W        W 2131   7.100   3.206   5.790
 1135W        W 2132   7.677   5.164   1.867
 1136W        W 2133   0.980   6.467   3.292
 1137W        W 2134   3.674   6.573   5.610
 1138W        W 2135   6.041   4.914   7.650
 1139W        W 2136   4.399   2.224   1.137
 1140W        W 2137   1.079   0.800   4.328
 1141W        W 2138   3.953   0.469   0.623
 1142W        W 2139   5.560   2.026   4.787
 1143W        W 2140   5.736   6.995   6.161
 1144W        W 2141   4.503   2.133   5.680
 1145W        W 2142   0.921   6.228   2.177
 1146W        W 2143   1.817   7.156   7.400
 1147W        W 2144   1.042   6.311   7.583
 1148W        W 2145   1.148   4.542   6.912
 1149W        W 2146   6.086   5.191   1.483
 1150W        W 2147   6.891   5.013   7.314
 1151W        W 2148   4.201   3.828   2.580
 1152W        W 2149   6.918   4.515   6.020
 1153W        W 2150   6.321   3.066   5.216
 1154W        W 2151   4.420   4.149   5.220
 1155W        W 2152   6.741   2.980   6.628
 1156W        W 2153   2.993   6.432   0.665
 1157W        W 2154   1.153   2.669   0.473
 1158W        W 2155   6.464   2.630   6.372
 1159W        W 2156   1.910   7.212   0.497
 1160W        W 2157   3.777   5.041   3.983
 1161W        W 2158   1.666   2.182   2.557
 1162W        W 2159   2.663   7.517   0.802
 1163W        W 2160   3.737   2.660   6.034
 1164W        W 2161   2.111   3.553   1.486
 1165W        W 2162   1.117   7.647   6.069
 1166W        W 2163   6.219   5.873   6.812
 1167W        W 2164   2.025   3.961   7.673
 1168W        W 2165   2.661   4.839   5.864
 1169W        W 2166   5.243   3.528   3.408
 1170W        W 2167   7.508   0.166   2.258
 1171W        W 2168   5.340   6.059   2.541
 1172W        W 2169   4.344   3.901   3.061
 1173W        W 2170   1.347   6.122   2.686
 1174W        W 2171   6.884   0.578   7.417
 1175W        W 2172   2.943   0.783   2.344
 1176W        W 2173   4.079   6.023   4.351
 1177W        W 2174   3.688   2.512   3.309
 1178W        W 2175   0.232   6.549   0.771
 1179W        W 2176   0.591   5.175   3.517
 1180W        W 2177   4.496   2.126   2.183
 1181W        W 2178   4.290   5.304   1.647
 1182W        W 2179   5.587   2.360   1.548
 1183W        W 2180   3.663   0.579   3.519
 1184W        W 2181   3.412   2.518   6.484
 1185W        W 2182   1.800   6.958   4.553
 1186W        W 2183   6.351   1.034   2.079
 1187W        W 2184   0.347   5.778   5.098
 1188W        W 2185   4.602   2.448   0.681
 1189W        W 2186   0.176   3.893   3.716
 1190W        W 2187   2.342   0.988   4.635
 1191W        W 2188   4.649   1.885   4.478
 1192W        W 2189   6.861   1.993   2.479
 1193W        W 2190   0.172   5.419   6.260
 1194W        W 2191   1.607   3.627   7.575
 1195W        W 2192   4.993   6.619   1.777
 1196W        W 2193   0.447   3.259   0.140
 1197W        W 2194   6.302   6.449   0.468
 1198W        W 2195   2.023   4.775   4.566
 1199W        W 2196   3.927   1.219   1.525
 1200W        W 2197   5.914   2.344   3.234
 1201W        W 2198   2.191   5.884   0.891
 1202W        W 2199   2.946   3.010   7.081
 1203W        W 2200   0.403   0.677   2.529
 1204W        W 2201   3.607   4.399   5.713
 1205W        W 2202   6.651   4.122   5.875
 1206W        W 2203   3.650   1.181   5.817
 1207W        W 2204   6.839   0.103   0.252
 1208W        W 2205   3.229   2.330   2.286
 1209W        W 2206   1.304   2.260   7.257
 1210W        W 2207   6.057   2.553   2.331
 1211W        W 2208   6.922   4.117   1.982
 1212W        W 2209   1.998   4.181   3.126
 1213W        W 2210   3.362   7.821   7.687
 1214W        W 2211   3.696   3.430   6.748
 1215W        W 2212   3.728   0.913   6.345
 1216W        W 2213   5.217   4.981   5.881
 1217W        W 2214   0.594   0.090   6.022
 1218W        W 2215   5.230   5.305   1.880
 1219W        W 2216   3.032   1.755   2.519
 1220W        W 2217   5.754   4.647   7.351
 1221W        W 2218   3.596   2.501   0.732
 1222W        W 2219   0.936   4.322   6.089
 1223W        W 2220   0.833   7.622   6.778
 1224W        W 2221   2.040   0.260   5.024
 1225W        W 2222   3.889   6.723   7.542
 1226W        W 2223   1.014   0.208   4.188
 1227W        W 2224   0.862   6.538   0.251
 1228W        W 2225   5.894   7.172   3.957
 1229W        W 2226   1.124   3.015   2.735
 1230W        W 2227   0.300   4.453   6.463
 1231W        W 2228   1.384   3.156   1.782
 1232W        W 2229   3.578   1.992   7.916
 1233W        W 2230   0.285   5.537   3.614
 1234W        W 2231   4.457   7.728   5.363
 1235W        W 2232   1.853   7.749   2.223
 1236W        W 2233   5.461   4.541   2.447
 1237W        W 2234   1.550   0.760   5.615
 1238W        W 2235   0.517   7.623   7.632
 1239W        W 2236   3.356   7.307   0.143
 1240W        W 2237   5.951   7.552   2.617
 1241W        W 2238   4.165   0.077   3.431
 1242W        W 2239   0.764   5.254   4.025
 1243W        W 2240   7.025   4.993   6.147
 1244W        W 2241   1.355   0.207   2.311
 1245W        W 2242   4.635   5.394   4.002
 1246W        W 2243   6.591   2.008   1.994
 1247W        W 2244   2.815   2.610   7.300
 1248W        W 2245   3.985   7.425   0.898
 1249W        W 2246   5.171   7.381   2.880
 1250W        W 2247   0.061   1.487   5.192
 1251W        W 2248   4.114   0.242   2.343
 1252W        W 2249   4.686   0.030   7.445
 1253W        W 2250   2.811   2.637   5.717
 1254W        W 2251   5.301   0.539   0.683
 1255W        W 2252   3.173   1.837   7.517
 1256W        W 2253   0.429   5.027   5.229
 1257W        W 2254   7.601   7.132   5.439
 1258W        W 2255   5.515   3.154   0.293
 1259W        W 2256   5.947   0.852   4.478
 1260W        W 2257   7.072   0.464   5.924
 1261W        W 2258   7.451   4.429   0.239
 1262W        W 2259   5.108   5.571   3.873
 1263W        W 2260   6.119   4.913   3.718
 1264W        W 2261   6.069   3.507   6.110
 1265W        W 2262   7.708   1.714   7.231
 1266W        W 2263   1.076   5.248   4.481
 1267W        W 2264   7.738   1.006   6.227
 1268W        W 2265   7.136   7.857   5.127
 1269W        W 2266   4.823   2.843   3.268
 1270W        W 2267   1.508   2.550   1.237
 1271W        W 2268   3.943   0.452   6.544
 1272W        W 2269   7.671   4.616   1.903
 1273W        W 2270   4.984   0.197   5.627
 1274W        W 2271   2.006   2.364   7.588
 1275W        W 2272   4.074   1.852   1.220
 1276W        W 2273   2.767   6.856   2.116
 1277W        W 2274   1.776   3.968   1.882
 1278W        W 2275   1.433   6.839   5.911
 1279W        W 2276   0.937   6.741   7.292
 1280W        W 2277   3.873   2.918   0.695
 1281W        W 2278   5.136   5.654   2.250
 1282W        W 2279   2.224   1.472   2.370
 1283W        W 2280   3.789   6.089   2.538
 1284W        W 2281   4.946   7.098   3.972
 1285W        W 2282   2.105   6.729   6.482
 1286W        W 2283   0.188   7.660   5.751
 1287W        W 2284   6.312   6.895   0.582
 1288W        W 2285   2.082   3.323   4.749
 1289W        W 2286   6.362   5.429   3.533
 1290W        W 2287   2.922   5.931   5.199
 1291W        W 2288   5.128   4.140   2.311
 1292W        W 2289   3.305   5.931   0.083
 1293W        W 2290   4.899   1.989   5.242
 1294W        W 2291   6.758   2.202   4.719
 1295W        W 2292   5.590   6.386   6.761
 1296W        W 2293   0.718   1.108   1.178
 1297W        W 2294   5.579   3.161   7.796
 1298W        W 2295   4.543   5.476   0.451
 1299W        W 2296   1.112   3.647   0.840
 1300W        W 2297   6.331   0.780   2.972
 1301W        W 2298   4.908   4.412   5.364
 1302W        W 2299   7.290   1.129   3.799
 1303W        W 2300   3.714   2.040   1.465
 1304W        W 2301   3.796   6.571   6.955
 1305W        W 2302   1.778   6.030   1.271
 1306W        W 2303   7.591   2.620   1.561
 1307W        W 2304   5.633   5.043   6.633
 1308W        W 2305   7.688   3.141   4.289
 1309W        W 2306   4.078   6.811   1.228
 1310W        W 2307   7.313   4.817   7.484
 1311W        W 2308   7.388   6.661   7.393
 1312W        W 2309   2.617   2.730   5.294
 1313W        W 2310   0.066   4.405   4.621
 1314W        W 2311   0.529   5.970   3.629
 1315W        W 2312   1.082   5.121   3.580
 1316W        W 2313   6.769   6.635   7.704
 1317W        W 2314   0.164   6.131   6.648
 1318W        W 2315   1.351   0.689   0.338
 1319W        W 2316   5.822   4.122   0.417
 1320W        W 2317   3.554   3.598   7.563
 1321W        W 2318   0.559   3.992   6.820
 1322W        W 2319   1.894   1.102   7.970
 1323W        W 2320   2.800   4.596   3.966
 1324W        W 2321   4.534   1.931   3.184
 1325W        W 2322   1.318   0.987   7.823
 1326W        W 2323   5.751   4.630   2.029
 1327W        W 2324   2.358   2.337   7.234
 1328W        W 2325   5.462   7.445   5.905
 1329W        W 2326   3.398   6.171   5.759
 1330W        W 2327   5.394   7.332   3.924
 1331W        W 2328   1.932   6.657   7.394
 1332W        W 2329   5.947   3.208   1.205
 1333W        W 2330   3.313   3.006   6.108
 1334W        W 2331   6.251   4.531   2.084
 1335W        W 2332   5.677   0.823   1.485
 1336W        W 2333   0.181   0.313   7.472
 1337W        W 2334   4.061   5.772   6.440
 1338W        W 2335   4.046   2.412   5.076
 1339W        W 2336   7.788   3.530   1.096
 1340W        W 2337   1.272   7.091   6.285
 1341W        W 2338   6.063   2.971   2.700
 1342W        W 2339   6.957   3.770   7.577
 1343W        W 2340   4.540   2.522   6.452
 1344W        W 2341   3.530   0.381   6.928
 1345W        W 2342   7.183   0.281   0.651
 1346W        W 2343   3.573   2.011   3.508
 1347W        W 2344   3.708   0.045   6.418
 1348W        W 2345   5.034   1.272   4.762
 1349W        W 2346   0.590   4.329   2.097
 1350W        W 2347   1.725   4.283   6.180
 1351W        W 2348   4.089   2.308   3.037
 1352W        W 2349   3.429   0.065   4.510
 1353W        W 2350   1.038   3.576   7.433
 1354W        W 2351   2.652   5.645   1.216
 1355W        W 2352   6.126   6.337   3.747
 1356W        W 2353   6.615   3.402   5.975
 1357W        W 2354   2.175   1.295   1.874
 1358W        W 2355   1.999   3.934   4.185
 1359W        W 2356   0.093   1.727   6.402
 1360W        W 2357   3.957   7.669   5.072
 1361W        W 2358   6.848   5.103   3.094
 1362W        W 2359   5.235   1.803   2.756
 1363W        W 2360   3.094   5.313   2.624
 1364W        W 2361   7.130   4.711   6.527
 1365W        W 2362   0.545   6.512   7.548
 1366W        W 2363   1.963   6.059   5.524
 1367W        W 2364   0.256   3.930   1.979
 1368W        W 2365   6.040   4.928   4.276
 1369W        W 2366   7.192   2.343   1.678
 1370W        W 2367   0.855   0.673   0.025
 1371W        W 2368   1.077   4.228   4.581
 1372W        W 2369   5.578   0.261   5.410
 1373W        W 2370   2.568   4.130   3.144
 1374W        W 2371   6.233   7.846   2.339
 1375W        W 2372   3.342   0.838   6.064
 1376W        W 2373   5.847   3.300   0.705
 1377W        W 2374   1.049   2.854   5.481
 1378W        W 2375   3.880   1.009   3.305
 1379W        W 2376   3.349   0.740   2.617
 1380W        W 2377   3.414   0.026   3.754
 1381W        W 2378   5.279   3.992   3.233
 1382W        W 2379   4.636   3.366   0.664
 1383W        W 2380   1.757   5.758   2.386
 1384W        W 2381   4.545   0.159   7.952
 1385W        W 2382   7.453   7.326   6.059
 1386W        W 2383   7.622   7.395   6.668
 1387W        W 2384   5.881   6.534   6.110
 1388W        W 2385   4.576   5.573   6.286
 1389W        W 2386   4.989   5.452   0.756
 1390W        W 2387   7.622   2.966   7.407
 1391W        W 2388   0.696   0.010   4.939
 1392W        W 2389   3.922   7.605   7.838
 1393W        W 2390   2.765   6.116   0.203
 1394W        W 2391   6.542   2.731   2.102
 1395W        W 2392   5.764   6.814   0.460
 1396W        W 2393   0.607   5.107   5.786
 1397W        W 2394   4.776   6.357   6.772
 1398W        W 2395   5.685   5.510   5.672
 1399W        W 2396   6.651   7.169   3.600
 1400W        W 2397   7.032   1.800   7.258
 1401W        W 2398   7.466   0.457   7.432
 1402W        W 2399   5.107   0.975   1.586
 1403W        W 2400   6.839   7.828   2.078
 1404W        W 2401   5.096   0.342   3.456
 1405W        W 2402   7.414   3.625   6.082
 1406W        W 2403   7.444   6.258   6.994
 1407W        W 2404   1.698   6.040   0.745
 1408W        W 2405   1.832   1.599   6.802
 1409W        W 2406   1.571   0.159   3.661
 1410W        W 2407   2.094   1.166   2.820
 1411W        W 2408   1.978   2.923   3.614
 1412W        W 2409   4.646   5.944   7.121
 1413W        W 2410   2.184   7.558   7.565
 1414W        W 2411   7.515   7.059   1.667
 1415W        W 2412   5.632   6.273   0.555
 1416W        W 2413   7.772   5.007   2.868
 1417W        W 2414   0.832   7.449   1.820
 1418W        W 2415   2.543   3.552   1.080
 1419W        W 2416   1.489   3.457   3.598
 1420W        W 2417   7.830   0.337   1.667
 1421W        W 2418   4.464   7.476   4.318
 1422W        W 2419   7.819   2.425   0.823
 1423W        W 2420   7.684   3.770   1.542
 1424W        W 2421   1.791   1.401   2.178
 1425W        W 2422   4.021   1.985   0.088
 1426W        W 2423   4.175   5.704   2.109
 1427W        W 2424   3.777   5.363   5.362
 1428W        W 2425   0.808   4.842   0.512
 1429W        W 2426   0.557   0.767   0.837
 1430W        W 2427   2.719   4.465   6.255
 1431W        W 2428   3.286   1.367   7.418
 1432W        W 2429   4.249   5.123   3.707
 1433W        W 2430   6.108   0.476   2.685
 1434W        W 2431   5.061   3.422   7.793
 1435W        W 2432   5.746   0.169   2.180
 1436W        W 2433   0.618   1.067   6.389
 1437W        W 2434   6.417   4.384   7.015
 1438W        W 2435   3.487   2.871   3.580
 1439W        W 2436   3.098   0.309   1.107
 1440W        W 2437   5.510   5.288   6.214
 1441W        W 2438   0.645   6.649   2.890
 1442W        W 2439   0.532   6.204   3.129
 1443W        W 2440   2.766   0.317   2.755
 1444W        W 2441   3.043   0.357   7.017
 1445W        W 2442   3.017   4.769   2.442
 1446W        W 2443   7.654   7.606   4.340
 1447W        W 2444   2.018   2.511   2.460
 1448W        W 2445   6.307   0.071   1.782
 1449W        W 2446   5.339   2.579   3.728
 1450W        W 2447   2.529   5.449   6.412
 1451W        W 2448   3.151   2.240   0.425
 1452W        W 2449   2.520   0.357   6.877
 1453W        W 2450   7.254   2.918   6.584
 1454W        W 2451   2.553   1.263   1.173
 1455W        W 2452   0.527   1.313   7.570
 1456W        W 2453   7.116   5.438   7.039
 1457W        W 2454   1.996   0.039   3.378
 1458W        W 2455   7.485   2.874   6.173
 1459W        W 2456   7.608   5.585   6.318
 1460W        W 2457   6.753   7.597   4.938
 1461W        W 2458   3.436   4.257   2.072
 1462W        W 2459   7.335   1.510   1.843
 1463W        W 2460   0.624   7.690   4.069
 1464W        W 2461   1.189   5.528   3.936
 1465W        W 2462   3.193   1.760   0.687
 1466W        W 2463   3.407   4.553   0.697
 1467W        W 2464   1.650   1.108   1.739
 1468W        W 2465   0.464   4.182   5.391
 1469W        W 2466   5.085   2.746   4.577
 1470W        W 2467   6.311   1.793   6.945
 1471W        W 2468   7.248   0.490   4.654
 1472W        W 2469   0.710   6.439   5.324
 1473W        W 2470   1.390   3.206   7.456
 1474W        W 2471   5.150   3.670   7.039
 1475W        W 2472   5.962   7.482   3.126
 1476W        W 2473   1.789   5.157   2.912
 1477W        W 2474   7.661   4.491   5.009
 1478W        W 2475   2.531   1.020   2.076
 1479W        W 2476   3.016   3.384   3.020
 1480W        W 2477   5.513   6.056   4.835
 1481W        W 2478   1.410   4.579   4.291
 1482W        W 2479   0.329   1.328   6.700
 1483W        W 2480   1.992   2.594   6.242
 1484W        W 2481   0.177   2.228   6.485
 1485W        W 2482   4.955   7.737   2.542
 1486W        W 2483   3.162   2.630   5.248
 1487W        W 2484   5.435   6.421   5.905
 1488W        W 2485   6.318   4.527   1.141
 1489W        W 2486   2.795   3.487   5.861
 1490W        W 2487   5.505   4.971   7.689
 1491W        W 2488   5.537   4.004   1.517
 1492W        W 2489   1.989   5.266   3.367
 1493W        W 2490   4.133   0.137   6.210
 1494W        W 2491   6.397   3.710   5.643
 1495W        W 2492   7.056   0.768   6.982
 1496W        W 2493   5.358   4.297   3.635
 1497W        W 2494   7.061   0.525   2.126
 1498W        W 2495   0.576   4.406   7.164
 1499W        W 2496   1.734   0.332   7.420
 1500W        W 2497   2.660   5.098   7.919
 1501W        W 2498   1.878   5.033   5.482
 1502W        W 2499   5.772   2.401   0.733
 1503W        W 2500   4.438   5.155   5.178
 1504W        W 2501   1.765   6.611   2.013
 1505W        W 2502   2.391   3.822   4.472
 1506W        W 2503   5.814   5.830   2.740
 1507W        W 2504   0.692   1.024   3.893
 1508W        W 2505   4.076   4.360   3.129
 1509W        W 2506   3.205   0.791   3.265
 1510W        W 2507   5.526   5.410   6.960
 1511W        W 2508   2.868   5.553   4.098
 1512W        W 2509   0.980   5.608   5.702
 1513W        W 2510   0.274   4.709   0.782
 1514W        W 2511   2.491   4.948   4.695
 1515W        W 2512   2.467   0.548   1.911
 1516W        W 2513   2.116   7.090   7.854
 1517W        W 2514   1.486   6.327   1.615
 1518W        W 2515   3.216   3.324   6.769
 1519W        W 2516   2.016   0.649   2.763
 1520W        W 2517   2.458   2.247   5.464
 1521W        W 2518   2.046   1.167   1.366
 1522W        W 2519   6.257   0.049   7.804
 1523W        W 2520   2.769   2.332   3.953
 1524W        W 2521   2.657   2.848   4.251
 1525W        W 2522   7.808   6.537   3.566
 1526W        W 2523   3.516   7.607   4.272
 1527W        W 2524   2.790   1.854   5.222
 1528W        W 2525   0.483   0.297   6.555
 1529W        W 2526   1.912   1.926   2.155
 1530W        W 2527   3.943   1.522   7.879
 1531W        W 2528   4.429   4.711   7.357
 1532W        W 2529   1.396   6.712   7.553
 1533W        W 2530   4.099   3.364   5.994
 1534W        W 2531   7.494   1.191   0.984
 1535W        W 2532   3.853   4.818   0.070
 1536W        W 2533   5.960   1.198   4.977
 1537W        W 2534   5.033   5.651   0.213
 1538W        W 2535   6.900   2.318   0.600
 1539W        W 2536   0.302   0.807   6.721
 1540W        W 2537   4.177   4.628   3.946
 1541W        W 2538   5.798   2.784   3.902
 1542W        W 2539   4.388   4.202   7.528
 1543W        W 2540   1.875   5.670   2.863
 1544W        W 2541   1.249   4.190   0.839
 1545W        W 2542   4.097   2.644   2.627
 1546W        W 2543   4.638   6.353   5.644
 1547W        W 2544   1.962   0.517   3.593
 1548W        W 2545   7.330   6.644   5.037
 1549W        W 2546   3.114   6.868   0.871
 1550W        W 2547   1.413   2.944   7.000
 1551W        W 2548   5.574   2.616   4.746
 1552W        W 2549   3.474   0.799   4.361
 1553W        W 2550   0.448   0.638   6.210
 1554W        W 2551   1.566   1.004   6.819
 1555W        W 2552   0.985   4.245   5.589
 1556W        W 2553   1.110   1.259   3.675
 1557W        W 2554   5.261   0.686   1.193
 1558W        W 2555   4.119   2.395   5.632
 1559W        W 2556   5.874   0.817   3.559
 1560W        W 2557   6.299   6.001   5.856
 1561W        W 2558   1.074   0.291   3.689
 1562W        W 2559   6.143   0.541   2.088
 1563W        W 2560   5.531   6.685   1.928
 1564W        W 2561   2.042   2.409   3.534
 1565W        W 2562   4.395   2.448   3.909
 1566W        W 2563   4.419   0.971   7.169
 1567W        W 2564   0.638   0.525   7.210
 1568W        W 2565   2.848   5.053   4.266
 1569W        W 2566   5.473   6.391   4.374
 1570W        W 2567   7.386   3.899   0.274
 1571W        W 2568   3.674   5.952   4.055
 1572W        W 2569   1.219   1.645   0.593
 1573W        W 2570   6.641   4.362   0.719
 1574W        W 2571   3.288   3.889   5.962
 1575W        W 2572   2.443   6.161   5.267
 1576W        W 2573   1.811   5.290   6.790
 1577W        W 2574   3.406   2.905   0.505
 1578W        W 2575   7.425   4.879   2.271
 1579W        W 2576   5.567   7.750   2.973
 1580W        W 2577   4.133   5.179   7.571
 1581W        W 2578   2.783   3.019   2.816
 1582W        W 2579   1.930   7.493   5.355
 1583W        W 2580   0.612   2.337   0.724
 1584W        W 2581   4.255   5.130   6.119
 1585W        W 2582   6.893   2.676   4.015
 1586W        W 2583   7.917   1.335   0.567
 1587W        W 2584   2.199   1.995   6.868
 1588W        W 2585   0.589   3.749   2.325
 1589W        W 2586   7.769   0.007   0.609
 1590W        W 2587   3.719   0.018   3.235
 1591W        W 2588   5.418   6.375   7.265
 1592W        W 2589   4.813   4.765   3.028
 1593W        W 2590   2.061   6.437   0.850
 1594W        W 2591   2.863   5.175   5.543
 1595W        W 2592   2.775   4.943   2.837
 1596W        W 2593   2.021   3.080   1.712
 1597W        W 2594   4.045   6.518   2.556
 1598W        W 2595   3.916   2.169   2.571
 1599W        W 2596   0.726   0.133   1.450
 1600W        W 2597   4.917   4.577   6.107
 1601W        W 2598   5.090   2.202   1.444
 1602W        W 2599   2.015   3.447   4.292
 1603W        W 2600   0.942   0.045   7.397
 1604W        W 2601   1.862   7.796   7.231
 1605W        W 2602   4.214   6.426   0.818
 1606W        W 2603   0.938   2.908   6.753
 1607W        W 2604   3.070   3.944   5.142
 1608W        W 2605   0.766   6.490   4.750
 1609W        W 2606   6.610   2.008   7.665
 1610W        W 2607   5.943   7.490   2.121
 1611W        W 2608   3.714   6.869   0.295
 1612W        W 2609   2.308   3.787   7.320
 1613W        W 2610   2.179   4.201   5.958
 1614W        W 2611   4.270   4.141   6.190
 1615W        W 2612   1.573   0.384   4.582
 1616W        W 2613   1.293   4.122   1.702
 1617W        W 2614   1.364   0.711   1.909
 1618W        W 2615   0.721   5.963   5.409
 1619W        W 2616   0.454   0.381   2.065
 1620W        W 2617   2.170   4.913   3.719
 1621W        W 2618   5.205   3.388   0.588
 1622W        W 2619   4.047   6.348   3.892
 1623W        W 2620   4.296   3.258   4.496
 1624W        W 2621   5.036   3.868   1.023
 1625W        W 2622   3.318   1.371   1.550
 1626W        W 2623   6.383   1.554   7.511
 1627W        W 2624   3.671   7.465   4.715
 1628W        W 2625   0.715   6.990   4.646
 1629W        W 2626   4.883   4.704   7.157
 1630W        W 2627   6.255   2.020   4.540
 1631W        W 2628   0.548   2.462   1.569
 1632W        W 2629   4.487   5.047   1.235
 1633W        W 2630   2.172   6.763   0.433
 1634W        W 2631   2.230   5.879   0.403
 1635W        W 2632   1.522   4.102   4.276
 1636W        W 2633   0.988   3.514   5.086
 1637W        W 2634   2.072   5.509   5.415
 1638W        W 2635   4.080   4.237   6.683
 1639W        W 2636   6.735   0.824   0.649
 1640W        W 2637   4.665   1.165   0.297
 1641W        W 2638   0.621   6.282   2.585
 1642W        W 2639   4.929   5.654   6.654
 1643W        W 2640   4.505   1.092   6.669
 1644W        W 2641   0.290   6.139   6.042
 1645W        W 2642   7.285   7.605   3.871
 1646W        W 2643   6.005   7.506   5.724
 1647W        W 2644   3.982   4.589   2.126
 1648W        W 2645   5.631   0.344   2.737
 1649W        W 2646   5.580   7.423   4.392
 1650W        W 2647   5.927   2.244   2.715
 1651W        W 2648   5.787   1.949   5.289
 1652W        W 2649   3.972   0.976   2.861
 1653W        W 2650   7.447   6.249   5.807
 1654W        W 2651   2.034   0.786   1.824
 1655W        W 2652   0.612   7.069   7.615
 1656W        W 2653   2.352   5.459   0.670
 1657W        W 2654   4.551   5.998   4.611
 1658W        W 2655   0.932   1.536   7.806
 1659W        W 2656   1.355   7.960   7.427
 1660W        W 2657   5.969   2.937   7.246
 1661W        W 2658   3.856   3.053   6.327
 1662W        W 2659   2.370   6.774   1.299
 1663W        W 2660   4.830   1.667   0.222
 1664W        W 2661   7.390   6.099   1.076
 1665W        W 2662   3.657   1.297   6.978
 1666W        W 2663   4.447   4.458   4.385
 1667W        W 2664   6.983   6.902   2.143
 1668W        W 2665   3.032   2.300   0.911
 1669W        W 2666   3.312   3.741   7.089
 1670W        W 2667   3.918   2.826   0.213
 1671W        W 2668   4.656   6.791   7.052
 1672W        W 2669   7.464   4.337   1.413
 1673W        W 2670   1.634   1.361   7.526
 1674W        W 2671   6.781   5.229   7.787
 1675W        W 2672   0.824   4.641   7.502
 1676W        W 2673   3.539   2.936   6.742
 1677W        W 2674   0.574   4.829   6.865
 1678W        W 2675   0.809   6.249   6.416
 1679W        W 2676   2.334   4.612   3.045
 1680W        W 2677   6.421   3.439   1.378
 1681W        W 2678   2.523   3.767   3.990
 1682W        W 2679   5.718   6.797   7.143
 1683W        W 2680   4.141   2.110   4.654
 1684W        W 2681   3.156   3.795   2.145
 1685W        W 2682   7.337   2.077   0.571
 1686W        W 2683   7.699   6.299   0.657
 1687W        W 2684   5.039   2.898   5.793
 1688W        W 2685   6.321   3.321   0.828
 1689W        W 2686   1.000   2.528   3.516
 1690W        W 2687   5.976   1.385   1.665
 1691W        W 2688   2.449   1.452   6.961
 1692W        W 2689   7.434   7.999   7.757
 1693W        W 2690   6.953   3.751   4.740
 1694W        W 2691   4.507   1.992   3.671
 1695W        W 2692   2.732   1.795   4.676
 1696W        W 2693   6.096   7.198   1.694
 1697W        W 2694   3.501   5.123   1.203
 1698W        W 2695   1.149   1.280   0.176
 1699W        W 2696   6.651   5.012   3.663
 1700W        W 2697   6.737   1.683   5.535
 1701W        W 2698   6.465   4.263   1.682
 1702W        W 2699   4.609   3.604   7.491
 1703W        W 2700   0.145   7.014   7.565
 1704W        W 2701   6.803   1.985   6.028
 1705W        W 2702   5.795   7.642   5.286
 1706W        W 2703   6.118   6.671   2.613
 1707W        W 2704   1.076   6.421   0.699
 1708W        W 2705   3.646   5.627   4.519
 1709W        W 2706   0.041   3.567   4.054
 1710W        W 2707   7.584   1.423   3.453
 1711W        W 2708   5.680   3.808   3.481
 1712W        W 2709   2.062   0.753   5.628
 1713W        W 2710   6.958   3.903   5.267
 1714W        W 2711   1.268   3.395   4.717
 1715W        W 2712   4.620   4.195   1.225
 1716W        W 2713   0.701   2.712   7.109
 1717W        W 2714   0.211   6.146   2.027
 1718W        W 2715   3.319   6.605   1.799
 1719W        W 2716   0.096   0.840   5.805
 1720W        W 2717   3.081   6.574   6.422
 1721W        W 2718   0.478   5.827   0.451
 1722W        W 2719   1.130   4.680   3.813
 1723W        W 2720   5.034   5.779   4.941
 1724W        W 2721   7.385   6.463   0.108
 1725W        W 2722   0.993   4.627   2.170
 1726W        W 2723   4.080   1.861   5.925
 1727W        W 2724   6.219   3.480   1.869
 1728W        W 2725   0.039   1.014   4.501
 1729W        W 2726   3.275   5.192   5.873
 1730W        W 2727   1.488   3.470   6.015
 1731W        W 2728   5.521   7.260   0.821
 1732W        W 2729   6.354   2.104   5.081
 1733W        W 2730   1.212   4.380   1.303
 1734W        W 2731   6.844   4.263   6.637
 1735W        W 2732   1.089   6.075   1.719
 1736W        W 2733   0.263   5.949   2.745
 1737W        W 2734   4.371   5.161   7.115
 1738W        W 2735   2.051   0.698   1.134
 1739W        W 2736   3.764   1.533   2.223
 1740W        W 2737   7.117   4.665   0.600
 1741W        W 2738   5.474   0.387   4.764
 1742W        W 2739   5.412   4.293   0.654
 1743W        W 2740   5.084   2.527   6.522
 1744W        W 2741   1.216   2.837   3.160
 1745W        W 2742   3.278   0.957   6.817
 1746W        W 2743   5.989   2.246   0.315
 1747W        W 2744   7.474   4.896   3.837
 1748W        W 2745   0.162   5.335   3.125
 1749W        W 2746   0.639   0.516   3.984
 1750W        W 2747   5.772   5.408   1.892
 1751W        W 2748   0.563   6.360   6.866
 1752W        W 2749   1.679   3.131   3.960
 1753W        W 2750   4.232   7.719   1.172
 1754W        W 2751   0.231   0.396   6.987
 1755W        W 2752   1.862   5.139   2.330
 1756W        W 2753   5.484   5.382   1.431
 1757W        W 2754   4.147   1.825   2.859
 1758W        W 2755   2.121   5.639   6.736
 1759W        W 2756   0.173   6.455   2.522
 1760W        W 2757   3.278   2.746   0.980
 1761W        W 2758   0.910   2.543   2.820
 1762W        W 2759   5.340   0.979   6.624
 1763W        W 2760   6.087   0.257   5.507
 1764W        W 2761   1.905   5.102   4.144
 1765W        W 2762   6.699   5.577   6.068
 1766W        W 2763   1.514   6.414   4.897
 1767W        W 2764   3.148   2.064   6.582
 1768W        W 2765   7.590   4.065   6.029
 1769W        W 2766   7.778   2.212   3.494
 1770W        W 2767   2.633   6.592   6.671
 1771W        W 2768   7.014   0.758   5.575
 1772W        W 2769   3.049   3.194   0.397
 1773W        W 2770   7.161   2.308   6.846
 1774W        W 2771   5.751   4.509   2.904
 1775W        W 2772   2.008   2.416   2.989
 1776W        W 2773   6.247   5.436   5.905
 1777W        W 2774   0.508   3.635   5.074
 1778W        W 2775   5.797   3.576   0.022
 1779W        W 2776   1.246   4.714   4.776
 1780W        W 2777   2.090   3.210   2.385
 1781W        W 2778   3.004   6.184   6.099
 1782W        W 2779   1.817   4.992   1.822
 1783W        W 2780   6.064   3.808   1.584
 1784W        W 2781   5.454   0.482   0.221
 1785W        W 2782   3.931   4.829   6.378
 1786W        W 2783   2.298   0.101   5.777
 1787W        W 2784   4.674   1.634   4.049
 1788W        W 2785   6.648   5.476   3.956
 1789W        W 2786   3.206   0.200   7.426
 1790W        W 2787   6.829   1.081   2.116
 1791W        W 2788   3.873   3.403   4.280
 1792W        W 2789   0.250   5.444   2.615
 1793W        W 2790   2.171   3.129   1.158
 1794W        W 2791   2.897   5.189   1.945
 1795W        W 2792   6.924   5.663   7.516
 1796W        W 2793   0.252   6.321   5.505
 1797W        W 2794   0.999   1.575   1.240
 1798W        W 2795   2.669   5.857   0.711
 1799W        W 2796   2.109   6.761   4.220
 1800W        W 2797   1.855   0.008   4.644
 1801W        W 2798   1.808   0.282   6.695
 1802W        W 2799   4.581   3.576   0.203
 1803W        W 2800   1.275   3.983   5.953
 1804W        W 2801   7.166   7.340   7.073
 1805W        W 2802   4.955   7.670   5.810
 1806W        W 2803   6.068   6.120   1.895
 1807W        W 2804   3.845   4.224   0.864
 1808W        W 2805   4.206   1.064   4.467
 1809W        W 2806   0.902   5.098   5.379
 1810W        W 2807   0.218   5.814   7.459
 1811W        W 2808   3.240   5.366   7.827
 1812W        W 2809   6.828   2.538   2.613
 1813W        W 2810   7.382   1.826   7.628
 1814W        W 2811   7.585   2.101   4.553
 1815W        W 2812   0.652   1.996   3.002
 1816W        W 2813   3.335   7.377   3.873
 1817W        W 2814   1.988   3.482   3.790
 1818W        W 2815   6.788   4.567   1.136
 1819W        W 2816   6.986   1.091   7.327
 1820W        W 2817   6.021   2.005   3.662
 1821W        W 2818   3.232   3.637   1.184
 1822W        W 2819   2.496   3.248   1.568
 1823W        W 2820   5.125   4.333   6.740
 1824W        W 2821   3.246   3.966   4.592
 1825W        W 2822   4.933   3.135   0.230
 1826W        W 2823   5.919   0.474   3.160
 1827W        W 2824   3.987   5.360   6.617
 1828W        W 2825   6.694   0.054   2.632
 1829W        W 2826   4.480   4.619   1.488
 1830W        W 2827   7.046   1.351   2.748
 1831W        W 2828   1.183   2.925   4.479
 1832W        W 2829   5.804   2.326   4.417
 1833W        W 2830   2.756   1.468   7.538
 1834W        W 2831   2.851   1.354   4.767
 1835W        W 2832   4.930   2.152   0.417
 1836W        W 2833   1.365   5.575   2.878
 1837W        W 2834   5.550   0.934   0.903
 1838W        W 2835   1.994   3.242   5.618
 1839W        W 2836   7.504   0.718   2.275
 1840W        W 2837   4.484   4.262   1.770
 1841W        W 2838   2.129   7.321   4.267
 1842W        W 2839   1.609   5.640   1.037
 1843W        W 2840   6.337   6.748   3.548
 1844W        W 2841   2.731   3.539   2.157
 1845W        W 2842   7.606   6.997   3.671
 1846W        W 2843   5.494   0.598   4.215
 1847W        W 2844   4.716   6.765   3.543
 1848W        W 2845   1.042   4.241   4.080
 1849W        W 2846   5.931   6.818   6.623
 1850W        W 2847   1.308   3.509   7.007
 1851W        W 2848   1.781   2.625   1.639
 1852W        W 2849   2.386   7.083   7.388
 1853W        W 2850   1.947   4.569   5.697
 1854W        W 2851   3.083   3.534   2.502
 1855W        W 2852   1.068   6.386   6.983
 1856W        W 2853   5.890   4.705   6.356
 1857W        W 2854   1.229   0.181   0.542
 1858W        W 2855   1.669   5.554   4.272
 1859W        W 2856   1.354   1.459   6.841
 1860W        W 2857   1.082   0.725   7.076
 1861W        W 2858   0.538   5.265   0.141
 1862W        W 2859   7.790   7.073   6.995
 1863W        W 2860   4.247   6.437   7.319
 1864W        W 2861   7.244   0.813   4.263
 1865W        W 2862   5.303   5.041   3.127
 1866W        W 2863   3.117   3.294   7.520
 1867W        W 2864   2.739   3.922   6.057
 1868W        W 2865   0.376   5.804   6.950
 1869W        W 2866   1.110   3.821   1.276
 1870W        W 2867   5.507   5.082   5.500
 1871W        W 2868   3.947   3.026   4.696
 1872W        W 2869   5.989   6.834   2.167
 1873W        W 2870   1.529   5.814   1.707
 1874W        W 2871   6.769   6.851   5.832
 1875W        W 2872   6.058   0.478   4.867
 1876W        W 2873   4.480   1.822   4.931
 1877W        W 2874   4.725   0.042   3.589
 1878W        W 2875   7.475   1.578   0.488
 1879W        W 2876   1.804   0.351   5.506
 1880W        W 2877   6.088   4.661   1.547
 1881W        W 2878   5.708   1.903   0.037
 1882W        W 2879   4.373   0.793   0.964
 1883W        W 2880   4.092   1.777   3.399
 1884W        W 2881   0.644   2.928   1.359
 1885W        W 2882   6.453   3.035   7.293
 1886W        W 2883   6.258   2.288   0.773
 1887W        W 2884   5.886   0.027   5.063
 1888W        W 2885   0.372   2.585   6.091
 1889W        W 2886   0.018   7.813   7.121
 1890W        W 2887   7.154   1.682   3.069
 1891W        W 2888   1.520   5.386   2.095
 1892W        W 2889   1.019   1.694   5.050
 1893W        W 2890   2.013   0.075   6.290
 1894W        W 2891   7.173   7.619   3.381
 1895W        W 2892   7.083   1.412   3.457
 1896W        W 2893   2.583   0.053   0.162
 1897W        W 2894   2.198   3.979   4.941
 1898W        W 2895   7.267   2.039   4.888
 1899W        W 2896   7.338   6.605   1.920
 1900W        W 2897   5.544   1.009   4.693
 1901W        W 2898   4.464   2.025   0.416
 1902W        W 2899   1.119   1.322   1.653
 1903W        W 2900   6.616   3.000   2.510
 1904W        W 2901   7.880   4.695   2.447
 1905W        W 2902   4.960   4.899   5.403
 1906W        W 2903   3.399   1.465   7.873
 1907W        W 2904   4.192   6.397   4.677
 1908W        W 2905   0.905   2.939   1.780
 1909W        W 2906   2.230   5.745   7.698
 1910W        W 2907   1.069   1.086   6.610
 1911W        W 2908   2.942   1.370   0.471
 1912W        W 2909   7.490   3.705   5.539
 1913W        W 2910   2.781   0.949   5.994
 1914W        W 2911   6.257   2.546   7.049
 1915W        W 2912   3.231   4.870   3.951
 1916W        W 2913   2.786   2.278   2.540
 1917W        W 2914   3.359   7.246   2.620
 1918W        W 2915   1.111   5.001   6.637
 1919W        W 2916   1.914   4.505   0.423
 1920W        W 2917   4.808   0.959   5.238
 1921W        W 2918   6.547   1.250   2.513
 1922W        W 2919   3.942   5.517   7.113
 1923W        W 2920   2.064   5.285   4.671
 1924W        W 2921   0.980   5.934   6.746
 1925W        W 2922   2.474   4.554   3.569
 1926W        W 2923   7.683   7.643   1.674
 1927W        W 2924   4.058   2.877   5.157
 1928W        W 2925   2.263   0.605   6.523
 1929W        W 2926   0.232   0.842   4.000
 1930W        W 2927   2.121   3.572   5.233
 1931W        W 2928   2.684   4.019   1.933
 1932W        W 2929   2.143   5.431   0.147
 1933W        W 2930   4.020   3.477   7.739
 1934W        W 2931   2.827   0.854   6.900
 1935W        W 2932   4.912   7.167   6.819
 1936W        W 2933   7.252   3.724   3.317
 1937W        W 2934   0.162   1.208   6.194
 1938W        W 2935   4.949   4.012   3.649
 1939W        W 2936   0.939   2.608   1.054
 1940W        W 2937   6.930   3.290   1.548
 1941W        W 2938   5.167   2.924   7.698
 1942W        W 2939   6.875   2.443   7.941
 1943W        W 2940   2.224   7.372   2.325
 1944W        W 2941   1.354   6.380   3.694
 1945W        W 2942   0.232   0.326   0.117
 1946W        W 2943   7.065   3.438   6.826
 1947W        W 2944   2.483   2.831   2.485
 1948W        W 2945   7.006   7.441   1.834
 1949W        W 2946   2.497   5.128   0.319
 1950W        W 2947   4.160   1.781   2.363
 1951W        W 2948   7.013   5.180   2.507
 1952W        W 2949   2.883   2.815   3.299
 1953W        W 2950   4.945   3.942   1.648
 1954W        W 2951   6.393   6.526   5.815
 1955W        W 2952   2.329   1.970   4.965
 1956W        W 2953   1.610   4.718   1.373
 1957W        W 2954   1.421   4.692   0.411
 1958W        W 2955   5.711   2.009   6.919
 1959W        W 2956   3.969   2.968   3.260
 1960W        W 2957   0.744   3.989   0.786
 1961W        W 2958   0.895   3.346   2.040
 1962W        W 2959   3.964   0.095   7.596
 1963W        W 2960   6.964   1.535   2.299
 1964W        W 2961   1.916   6.162   6.509
 1965W        W 2962   0.810   3.740   4.701
 1966W        W 2963   3.886   2.596   6.532
 1967W        W 2964   4.173   0.688   4.726
 1968W        W 2965   6.142   3.025   2.139
 1969W        W 2966   0.879   4.754   4.268
 1970W        W 2967   7.896   6.912   3.206
 1971W        W 2968   5.367   4.123   7.115
 1972W        W 2969   6.887   0.308   4.326
 1973W        W 2970   7.839   1.862   0.694
 1974W        W 2971   6.764   7.893   6.301
 1975W        W 2972   2.869   5.454   3.157
 1976W        W 2973   0.456   6.649   3.371
 1977W        W 2974   6.100   5.880   4.204
 1978W        W 2975   5.428   4.338   6.311
 1979W        W 2976   4.785   7.683   3.005
 1980W        W 2977   3.725   7.776   2.289
 1981W        W 2978   6.052   5.610   7.202
 1982W        W 2979   5.622   2.695   7.608
 1983W        W 2980   5.561   2.458   2.033
 1984W        W 2981   0.203   4.385   2.512
 1985W        W 2982   7.213   2.023   6.405
 1986W        W 2983   3.345   1.759   6.980
 1987W        W 2984   7.265   3.383   4.131
 1988W        W 2985   0.897   2.437   1.927
 1989W        W 2986   6.744   5.944   5.570
 1990W        W 2987   3.267   7.841   2.957
 1991W        W 2988   1.011   4.268   3.553
 1992W        W 2989   4.041   0.098   2.881
 1993W        W 2990   5.980   0.222   6.923
 1994W        W 2991   1.931   5.643   1.890
 1995W        W 2992   5.361   5.747   4.392
 1996W        W 2993   5.443   6.904   6.586
 1997W        W 2994   5.150   4.302   1.191
 1998W        W 2995   2.904   0.136   3.613
 1999W        W 2996   7.346   5.819   4.287
 2000W        W 2997   2.175   4.301   4.528
 2001W        W 2998   4.747   2.482   2.916
 2002W        W 2999   5.490   1.311   1.813
 2003W        W 3000   1.715   3.751   2.946
 2004W        W 3001   1.969   0.800   7.492
 2005W        W 3002   4.339   5.586   4.381
 2006W        W 3003   3.614   5.681   6.101
 2007W        W 3004   6.375   0.152   3.029
 2008W        W 3005   6.007   2.726   6.585
 2009W        W 3006   6.940   7.160   3.148
 2010W        W 3007   2.343   4.822   4.155
 2011W        W 3008   0.904   0.203   6.894
 2012W        W 3009   6.977   2.464   1.216
 2013W        W 3010   4.050   4.918   1.443
 2014W        W 3011   7.680   2.976   3.495
 2015W        W 3012   0.184   4.545   7.415
 2016W        W 3013   3.354   2.013   1.790
 2017W        W 3014   2.768   0.619   3.835
 2018W        W 3015   2.150   0.807   5.092
 2019W        W 3016   0.665   0.563   4.547
 2020W        W 3017   1.060   6.492   1.365
 2021W        W 3018   5.555   7.621   7.290
 2022W        W 3019   3.691   5.193   2.841
 2023W        W 3020   6.516   0.704   5.207
 2024W        W 3021   7.109   0.781   0.947
 2025W        W 3022   7.685   3.752   0.675
 2026W        W 3023   0.872   0.546   1.706
 2027W        W 3024   7.572   0.771   0.087
 2028W        W 3025   3.516   5.082   0.621
 2029W        W 3026   5.756   2.698   0.226
 2030W        W 3027   6.722   6.583   0.658
 2031W        W 3028   1.899   2.264   4.275
 2032W        W 3029   6.558   6.847   0.143
 2033W        W 3030   0.443   7.415   7.157
 2034W        W 3031   1.786   7.842   0.605
 2035W        W 3032   1.708   0.644   5.006
 2036W        W 3033   5.907   4.243   7.130
 2037W        W 3034   6.799   7.672   5.475
 2038W        W 3035   0.806   3.828   6.025
 2039W        W 3036   4.331   5.525   0.889
 2040W        W 3037   2.074   1.051   0.724
 2041W        W 3038   5.073   7.462   4.394
 2042W        W 3039   6.397   7.263   3.116
 2043W        W 3040   5.363   1.553   5.650
 2044W        W 3041   5.110   0.027   7.707
 2045W        W 3042   3.310   5.472   0.875
 2046W        W 3043   5.725   3.801   4.419
 2047W        W 3044   4.911   1.143   4.080
 2048W        W 3045   3.717   5.742   5.093
 2049W        W 3046   4.792   2.132   4.068
 2050W        W 3047   7.123   6.255   4.071
 2051W        W 3048   7.317   7.223   4.236
 2052W        W 3049   0.327   2.872   7.453
 2053W        W 3050   2.571   4.005   2.386
 2054W        W 3051   0.613   0.002   0.178
 2055W        W 3052   6.944   3.436   0.304
 2056W        W 3053   6.871   3.910   6.229
 2057W        W 3054   2.419   6.278   0.534
 2058W        W 3055   2.330   4.349   0.738
 2059W        W 3056   3.010   2.529   6.167
 2060W        W 3057   5.039   4.198   2.823
 2061W        W 3058   2.634   6.972   4.249
 2062W        W 3059   4.629   6.282   1.933
 2063W        W 3060   4.204   0.818   0.112
 2064W        W 3061   6.707   0.517   4.802
 2065W        W 3062   4.621   4.225   5.770
 2066W        W 3063   1.565   6.430   4.329
 2067W        W 3064   6.818   5.697   1.894
 2068W        W 3065   4.923   0.493   1.603
 2069W        W 3066   6.733   6.893   7.191
 2070W        W 3067   1.728   0.347   1.988
 2071W        W 3068   1.136   2.339   1.479
 2072W        W 3069   4.916   3.628   2.192
 2073W        W 3070   4.574   7.926   4.492
 2074W        W 3071   6.431   2.981   4.706
 2075W        W 3072   3.291   6.397   4.633
 2076W        W 3073   6.050   6.236   2.412
 2077W        W 3074   3.663   7.116   1.159
 2078W        W 3075   0.318   6.306   3.936
 2079W        W 3076   0.132   4.937   6.495
 2080W        W 3077   1.314   4.224   6.464
 2081W        W 3078   5.599   6.659   2.415
 2082W        W 3079   7.719   2.776   5.212
 2083W        W 3080   6.565   1.234   0.507
 2084W        W 3081   4.568   6.102   7.586
 2085W        W 3082   4.731   1.141   2.898
 2086W        W 3083   1.793   7.700   4.061
 2087W        W 3084   0.518   0.560   5.704
 2088W        W 3085   3.605   6.627   0.859
 2089W        W 3086   7.566   3.554   1.996
 2090W        W 3087   5.144   0.091   0.880
 2091W        W 3088   5.644   4.654   5.854
 2092W        W 3089   6.440   5.876   3.756
 2093W        W 3090   7.455   4.821   1.507
 2094W        W 3091   7.360   2.670   0.803
 2095W        W 3092   7.054   1.237   0.668
 2096W        W 3093   3.747   0.504   7.963
 2097W        W 3094   0.305   2.608   4.757
 2098W        W 3095   3.042   6.882   7.897
 2099W        W 3096   4.836   0.914   2.460
 2100W        W 3097   7.461   0.564   5.467
 2101W        W 3098   1.196   2.100   3.814
 2102W        W 3099   7.560   2.897   0.353
 2103W        W 3100   3.531   2.557   3.964
 2104W        W 3101   4.115   3.401   3.527
 2105W        W 3102   4.010   0.363   7.172
 2106W        W 3103   2.665   1.281   2.603
 2107W        W 3104   6.451   7.251   5.908
 2108W        W 3105   5.734   6.775   3.586
 2109W        W 3106   3.903   3.805   0.033
 2110W        W 3107   1.245   1.892   7.627
 2111W        W 3108   6.143   5.036   1.992
 2112W        W 3109   1.369   0.912   4.711
 2113W        W 3110   3.060   7.139   1.803
 2114W        W 3111   0.136   7.306   4.068
 2115W        W 3112   7.712   2.916   1.059
 2116W        W 3113   6.502   4.965   6.060
 2117W        W 3114   4.830   5.991   4.145
 2118W        W 3115   6.005   5.173   6.258
 2119W        W 3116   2.016   3.438   6.221
 2120W        W 3117   6.605   0.380   5.674
 2121W        W 3118   6.194   2.331   4.114
 2122W        W 3119   6.335   2.501   4.544
 2123W        W 3120   7.197   7.111   5.707
 2124W        W 3121   3.845   7.229   3.597
 2125W        W 3122   3.094   5.030   7.484
 2126W        W 3123   7.127   5.552   6.250
 2127W        W 3124   6.832   3.459   3.281
 2128W        W 3125   7.644   1.662   4.360
 2129W        W 3126   2.259   4.979   2.707
 2130W        W 3127   4.527   7.290   3.814
 2131W        W 3128   4.809   7.388   6.248
 2132W        W 3129   6.239   7.153   2.653
 2133W        W 3130   6.896   5.240   6.613
 2134W        W 3131   0.248   6.419   4.520
 2135W        W 3132   5.987   6.706   4.450
 2136W        W 3133   6.414   5.671   0.829
 2137W        W 3134   4.150   6.563   3.433
 2138W        W 3135   1.709   3.452   2.051
 2139W        W 3136   5.853   5.479   3.467
 2140W        W 3137   5.027   6.128   3.666
 2141W        W 3138   1.676   0.131   1.333
 2142W        W 3139   6.952   7.493   2.838
 2143W        W 3140   6.462   3.965   1.228
 2144W        W 3141   1.542   2.613   4.929
 2145W        W 3142   6.478   7.410   2.230
 2146W        W 3143   2.854   6.739   5.971
 2147W        W 3144   4.171   7.735   0.390
 2148W        W 3145   6.433   1.727   2.370
 2149W        W 3146   3.951   3.773   3.846
 2150W        W 3147   3.476   6.216   6.247
 2151W        W 3148   4.144   1.086   0.563
 2152W        W 3149   5.976   4.273   1.778
 2153W        W 3150   4.231   3.468   6.724
 2154W        W 3151   4.136   3.286   2.536
 2155W        W 3152   0.953   1.296   4.738
 2156W        W 3153   4.059   6.338   7.776
 2157W        W 3154   6.695   3.304   5.453
 2158W        W 3155   5.764   7.248   1.329
 2159W        W 3156   4.039   0.591   4.170
 2160W        W 3157   2.926   2.115   7.123
 2161W        W 3158   2.477   6.826   2.954
 2162W        W 3159   5.555   3.660   3.024
 2163W        W 3160   2.247   4.159   6.946
 2164W        W 3161   5.390   3.030   1.382
 2165W        W 3162   2.685   5.626   4.663
 2166W        W 3163   4.984   1.447   5.905
 2167W        W 3164   7.443   7.093   3.193
 2168W        W 3165   5.739   3.897   4.912
 2169W        W 3166   4.997   3.088   4.195
 2170W        W 3167   2.423   0.289   3.616
 2171W        W 3168   1.099   2.567   4.093
 2172W        W 3169   1.967   3.293   3.298
 2173W        W 3170   1.714   3.865   5.086
 2174W        W 3171   6.123   4.246   6.524
 2175W        W 3172   5.251   3.082   4.908
 2176W        W 3173   5.037   5.659   3.284
 2177W        W 3174   7.133   3.427   5.196
 2178W        W 3175   3.815   5.509   3.243
 2179W        W 3176   3.029   1.021   7.718
 2180W        W 3177   7.219   4.737   3.237
 2181W        W 3178   4.574   3.697   5.924
 2182W        W 3179   3.255   7.550   6.398
 2183W        W 3180   3.218   6.107   1.907
 2184W        W 3181   6.686   6.003   4.203
 2185W        W 3182   1.450   0.460   4.087
 2186W        W 3183   2.841   6.672   1.246
 2187W        W 3184   1.278   3.882   4.863
 2188W        W 3185   5.001   5.580   7.208
 2189W        W 3186   5.764   7.175   5.399
 2190W        W 3187   3.341   5.430   3.134
 2191W        W 3188   1.903   2.693   0.976
 2192W        W 3189   5.820   0.175   0.058
 2193W        W 3190   0.478   6.759   5.044
 2194W        W 3191   5.564   5.823   5.305
 2195W        W 3192   4.043   5.097   0.883
 2196W        W 3193   5.302   6.684   0.721
 2197W        W 3194   2.518   0.477   4.889
 2198W        W 3195   0.700   3.652   7.780
 2199W        W 3196   3.209   1.862   4.540
 2200W        W 3197   1.044   1.307   4.171
 2201W        W 3198   3.809   7.745   2.842
 2202W        W 3199   3.752   0.503   6.073
 2203W        W 3200   7.441   5.738   4.790
 2204W        W 3201   0.513   1.830   4.811
 2205W        W 3202   4.783   6.740   2.770
 2206W        W 3203   3.101   5.711   1.584
 2207W        W 3204   3.629   3.848   0.435
 2208W        W 3205   5.246   2.146   3.864
 2209W        W 3206   6.967   2.028   1.001
 2210W        W 3207   4.198   2.082   1.728
 2211W        W 3208   2.406   5.881   1.700
 2212W        W 3209   4.833   2.440   3.589
 2213W        W 3210   3.858   0.726   2.009
 2214W        W 3211   1.931   6.158   1.784
 2215W        W 3212   5.854   4.893   3.268
 2216W        W 3213   2.459   0.814   2.590
 2217W        W 3214   6.746   2.628   6.981
 2218W        W 3215   7.678   3.352   3.801
 2219W        W 3216   4.835   6.475   6.102
 2220W        W 3217   6.668   1.202   5.647
 2221W        W 3218   3.288   3.576   0.228
 2222W        W 3219   5.373   4.605   5.382
 2223W        W 3220   2.251   4.376   7.539
 2224W        W 3221   4.640   3.769   4.008
 2225W        W 3222   1.031   7.581   2.617
 2226W        W 3223   6.677   7.587   0.570
 2227W        W 3224   4.944   2.586   4.064
 2228W        W 3225   4.989   1.796   3.641
 2229W        W 3226   5.051   0.339   4.028
 2230W        W 3227   3.642   3.473   2.554
 2231W        W 3228   3.650   0.017   5.881
 2232W        W 3229   4.218   7.699   3.800
 2233W        W 3230   0.378   6.253   4.988
 2234W        W 3231   7.775   6.169   2.697
 2235W        W 3232   6.416   1.033   4.864
 2236W        W 3233   6.368   3.887   6.190
 2237W        W 3234   4.657   2.781   7.385
 2238W        W 3235   2.523   4.450   1.529
 2239W        W 3236   7.815   3.313   6.166
 2240W        W 3237   6.375   5.073   3.197
 2241W        W 3238   0.129   3.465   3.483
 2242W        W 3239   7.636   6.668   2.387
 2243W        W 3240   6.046   2.979   1.639
 2244W        W 3241   2.842   3.989   1.144
 2245W        W 3242   1.386   7.552   7.050
 2246W        W 3243   3.608   5.888   6.603
 2247W        W 3244   3.419   3.750   6.563
 2248W        W 3245   2.886   6.345   3.040
 2249W        W 3246   2.489   5.551   3.482
 2250W        W 3247   7.345   7.023   2.639
 2251W        W 3248   1.671   1.758   0.733
 2252W        W 3249   4.665   0.310   2.633
 2253W        W 3250   0.728   5.926   4.751
 2254W        W 3251   1.426   4.453   7.332
 2255W        W 3252   1.582   1.811   6.262
 2256W        W 3253   7.780   3.028   2.000
 2257W        W 3254   5.125   4.773   4.623
 2258W        W 3255   5.635   0.753   5.704
 2259W        W 3256   2.889   1.781   2.951
 2260W        W 3257   6.794   5.913   0.044
 2261W        W 3258   3.796   7.309   6.534
 2262W        W 3259   3.983   2.134   7.231
 2263W        W 3260   3.016   0.458   6.063
 2264W        W 3261   4.167   2.570   2.006
 2265W        W 3262   4.122   0.905   3.715
 2266W        W 3263   5.216   2.380   5.041
 2267W        W 3264   3.280   5.508   2.105
 2268W        W 3265   2.648   4.766   7.577
 2269W        W 3266   6.948   5.027   1.369
 2270W        W 3267   1.845   4.741   3.263
 2271W        W 3268   7.701   6.138   2.143
 2272W        W 3269   5.475   5.899   7.382
 2273W        W 3270   1.669   4.319   6.824
 2274W        W 3271   3.161   6.835   0.380
 2275W        W 3272   4.757   3.484   4.378
 2276W        W 3273   0.737   3.278   4.419
 2277W        W 3274   6.111   6.953   5.798
 2278W        W 3275   4.017   1.925   0.666
 2279W        W 3276   2.654   5.614   5.578
 2280W        W 3277   0.277   2.676   4.247
 2281W        W 3278   1.253   7.497   6.562
 2282W        W 3279   0.079   3.171   7.051
 2283W        W 3280   1.473   0.910   7.377
 2284W        W 3281   5.721   2.465   5.275
 2285W        W 3282   7.246   2.710   7.094
 2286W        W 3283   2.497   2.480   7.671
 2287W        W 3284   0.382   2.418   2.772
 2288W        W 3285   7.149   4.594   1.848
 2289W        W 3286   7.420   6.188   3.252
 2290W        W 3287   2.365   4.870   1.741
 2291W        W 3288   2.344   5.361   3.023
 2292W        W 3289   4.668   2.637   5.943
 2293W        W 3290   5.416   0.299   1.415
 2294W        W 3291   6.664   1.625   4.260
 2295W        W 3292   6.093   2.588   7.528
 2296W        W 3293   0.735   2.176   3.923
 2297W        W 3294   5.545   7.827   1.351
 2298W        W 3295   0.124   0.319   5.971
 2299W        W 3296   6.089   6.457   7.037
 2300W        W 3297   0.982   5.379   3.104
 2301W        W 3298   1.874   6.790   5.058
 2302W        W 3299   7.388   7.790   0.654
 2303W        W 3300   5.809   3.002   6.001
 2304W        W 3301   1.058   6.603   5.652
 2305W        W 3302   5.939   0.068   0.571
 2306W        W 3303   5.789   1.072   3.986
 2307W        W 3304   0.399   6.776   7.109
 2308W        W 3305   2.571   6.662   5.562
 2309W        W 3306   1.515   5.928   3.133
 2310W        W 3307   0.562   5.079   2.993
 2311W        W 3308   5.876   3.898   5.409
 2312W        W 3309   1.970   3.726   1.046
 2313W        W 3310   7.739   4.039   4.773
 2314W        W 3311   7.054   3.440   6.324
 2315W        W 3312   0.449   6.542   6.282
 2316W        W 3313   4.597   5.111   0.743
 2317W        W 3314   6.973   7.115   6.179
 2318W        W 3315   0.422   0.924   4.851
 2319W        W 3316   3.531   5.749   1.316
 2320W        W 3317   4.475   6.827   5.437
 2321W        W 3318   1.503   1.777   7.208
 2322W        W 3319   3.046   5.043   3.254
 2323W        W 3320   3.563   3.407   1.516
 2324W        W 3321   0.611   1.831   6.543
 2325W        W 3322   6.870   7.807   7.817
 2326W        W 3323   1.387   1.882   1.261
 2327W        W 3324   0.260   2.685   6.922
 2328W        W 3325   5.693   3.337   6.945
 2329W        W 3326   1.849   1.647   2.752
 2330W        W 3327   0.535   3.169   6.935
 2331W        W 3328   4.471   3.153   5.026
 2332W        W 3329   1.766   0.051   7.825
 2333W        W 3330   2.558   7.414   1.910
 2334W        W 3331   5.667   1.540   7.806
 2335W        W 3332   3.560   7.734   1.169
 2336W        W 3333   7.490   5.391   5.845
 2337W        W 3334   2.977   3.056   5.062
 2338W        W 3335   0.345   7.358   4.519
 2339W        W 3336   4.143   5.910   4.855
 2340W        W 3337   6.976   0.385   5.312
 2341W        W 3338   1.947   3.795   2.443
 2342W        W 3339   0.812   1.661   2.568
 2343W        W 3340   4.363   5.885   3.957
 2344W        W 3341   4.083   5.937   0.694
 2345W        W 3342   5.164   0.648   5.404
 2346W        W 3343   1.649   6.723   0.546
 2347W        W 3344   3.604   2.147   6.891
 2348W        W 3345   1.018   7.369   0.304
 2349W        W 3346   0.497   7.269   5.866
 2350W        W 3347   1.307   0.519   7.608
 2351W        W 3348   3.632   4.877   5.559
 2352W        W 3349   6.402   2.012   1.215
 2353W        W 3350   6.800   6.619   4.339
 2354W        W 3351   5.906   1.622   7.385
 2355W        W 3352   3.027   5.059   0.292
 2356W        W 3353   5.255   0.737   2.779
 2357W        W 3354   1.573   6.450   1.006
 2358W        W 3355   2.864   7.593   2.671
 2359W        W 3356   2.968   3.367   1.743
 2360W        W 3357   5.937   4.965   0.338
 2361W        W 3358   5.133   6.178   1.843
 2362W        W 3359   5.234   1.069   5.671
 2363W        W 3360   4.977   0.911   0.710
 2364W        W 3361   6.980   4.215   0.385
 2365W        W 3362   6.265   4.616   0.497
 2366W        W 3363   0.693   2.947   6.170
 2367W        W 3364   0.556   1.485   3.769
 2368W        W 3365   5.365   5.581   1.020
 2369W        W 3366   5.735   7.279   4.881
 2370W        W 3367   0.565   5.424   2.066
 2371W        W 3368   0.652   7.721   6.337
 2372W        W 3369   4.213   6.881   7.181
 2373W        W 3370   5.180   2.272   4.394
 2374W        W 3371   6.424   0.415   7.258
 2375W        W 3372   3.671   0.622   3.031
 2376W        W 3373   1.914   5.865   0.026
 2377W        W 3374   7.019   2.481   5.075
 2378W        W 3375   1.423   7.909   2.635
 2379W        W 3376   2.320   0.459   7.355
 2380W        W 3377   7.126   4.794   0.006
 2381W        W 3378   2.188   4.181   5.445
 2382W        W 3379   4.994   5.218   1.131
 2383W        W 3380   2.248   3.767   3.332
 2384W        W 3381   2.496   0.292   6.236
 2385W        W 3382   2.027   6.950   7.004
 2386W        W 3383   7.351   5.460   0.594
 2387W        W 3384   6.792   3.656   4.180
 2388W        W 3385   4.207   2.737   1.044
 2389W        W 3386   3.397   7.189   6.759
 2390W        W 3387   2.364   0.408   5.367
 2391W        W 3388   1.558   7.899   6.714
 2392W        W 3389   7.105   2.168   5.639
 2393W        W 3390   3.922   1.346   3.645
 2394W        W 3391   7.095   3.638   1.883
 2395W        W 3392   3.593   1.170   1.919
 2396W        W 3393   1.702   3.344   5.098
 2397W        W 3394   5.229   7.800   4.676
 2398W        W 3395   4.772   6.931   2.233
 2399W        W 3396   4.193   1.589   4.560
 2400W        W 3397   4.607   1.358   4.465
 2401W        W 3398   4.005   6.727   5.289
 2402W        W 3399   6.422   1.648   5.957
 2403W        W 3400   5.718   2.274   3.918
 2404W        W 3401   5.662   4.097   6.666
 2405W        W 3402   1.393   2.884   0.928
 2406W        W 3403   3.058   2.220   2.966
 2407W        W 3404   0.782   4.666   5.703
 2408W        W 3405   5.589   7.199   3.195
 2409W        W 3406   5.912   6.695   5.431
 2410W        W 3407   6.210   6.125   0.825
 2411W        W 3408   4.046   4.061   1.727
 2412W        W 3409   3.890   2.319   1.078
 2413W        W 3410   0.234   1.455   4.714
 2414W        W 3411   5.437   7.804   5.547
 2415W        W 3412   4.380   7.188   1.236
 2416W        W 3413   7.499   0.765   1.802
 2417W        W 3414   0.570   7.420   0.092
 2418W        W 3415   7.607   1.091   5.214
 2419W        W 3416   1.402   5.197   2.583
 2420W        W 3417   5.702   2.681   2.897
 2421W        W 3418   5.216   4.017   4.122
 2422W        W 3419   0.181   7.594   3.207
 2423W        W 3420   0.159   5.154   6.984
 2424W        W 3421   5.437   1.667   5.133
 2425W        W 3422   2.675   1.722   1.055
 2426W        W 3423   1.880   6.525   1.425
 2427W        W 3424   0.325   7.020   6.262
 2428W        W 3425   4.205   2.435   0.133
 2429W        W 3426   3.630   3.316   3.366
 2430W        W 3427   2.681   5.839   6.015
 2431W        W 3428   1.880   3.799   7.031
 2432W        W 3429   1.731   4.155   1.392
 2433W        W 3430   6.251   4.524   3.358
 2434W        W 3431   2.871   3.415   5.350
 2435W        W 3432   0.198   5.841   5.600
 2436W        W 3433   2.589   2.262   0.769
 2437W        W 3434   0.083   7.937   2.788
 2438W        W 3435   1.427   7.550   7.745
 2439W        W 3436   2.446   2.640   0.448
 2440W        W 3437   2.270   7.639   3.887
 2441W        W 3438   0.281   1.747   3.311
 2442W        W 3439   5.383   6.156   3.094
 2443W        W 3440   3.305   6.341   6.872
 2444W        W 3441   5.276   7.496   3.361
 2445W        W 3442   2.683   4.563   2.004
 2446W        W 3443   6.428   5.386   6.414
 2447W        W 3444   4.167   6.508   5.791
 2448W        W 3445   2.758   4.150   3.712
 2449W        W 3446   0.785   0.665   6.697
 2450W        W 3447   3.474   1.128   1.159
 2451W        W 3448   1.960   1.695   1.705
 2452W        W 3449   7.498   5.787   5.313
 2453W        W 3450   3.669   1.598   1.698
 2454W        W 3451   2.570   5.866   3.061
 2455W        W 3452   3.566   6.301   0.415
 2456W        W 3453   1.692   2.810   0.502
 2457W        W 3454   3.939   6.346   6.518
 2458W        W 3455   5.311   5.943   1.339
 2459W        W 3456   4.580   5.062   2.598
 2460W        W 3457   4.269   3.752   4.336
 2461W        W 3458   2.388   1.718   5.486
 2462W        W 3459   4.038   4.363   2.595
 2463W        W 3460   1.007   4.147   7.490
 2464W        W 3461   2.507   5.349   1.600
 2465W        W 3462   4.043   7.312   6.964
 2466W        W 3463   4.386   1.266   6.179
 2467W        W 3464   2.690   0.122   7.272
 2468W        W 3465   5.972   0.220   7.443
 2469W        W 3466   7.751   4.845   6.838
 2470W        W 3467   3.636   5.054   7.798
 2471W        W 3468   2.852   5.828   2.154
 2472W        W 3469   1.063   1.896   1.708
 2473W        W 3470   2.323   3.788   5.739
 2474W        W 3471   3.314   3.757   3.485
 2475W        W 3472   3.992   2.676   3.703
 2476W        W 3473   7.847   6.382   4.938
 2477W        W 3474   6.192   1.503   5.375
 2478W        W 3475   7.272   5.695   3.401
 2479W        W 3476   1.751   3.885   6.434
 2480W        W 3477   1.524   2.580   4.421
 2481W        W 3478   6.971   1.765   6.738
 2482W        W 3479   3.514   5.623   2.727
 2483W        W 3480   5.407   0.866   7.115
 2484W        W 3481   7.586   2.940   2.819
 2485W        W 3482   2.941   3.943   5.629
 2486W        W 3483   6.937   2.368   2.131
 2487W        W 3484   2.582   6.225   0.985
 2488W        W 3485   5.544   1.766   3.837
 2489W        W 3486   6.619   1.096   7.711
 2490W        W 3487   2.931   3.060   2.293
 2491W        W 3488   2.894   2.756   0.642
 2492W        W 3489   4.837   1.539   3.198
 2493W        W 3490   4.966   7.599   3.900
 2494W        W 3491   0.876   7.198   7.053
 2495W        W 3492   5.157   6.276   1.024
 2496W        W 3493   6.893   5.071   5.193
 2497W        W 3494   5.243   7.000   3.580
 2498W        W 3495   7.417   4.170   5.291
 2499W        W 3496   3.974   5.042   3.227
 2500W        W 3497   7.155   6.183   7.506
 2501W        W 3498   7.773   5.127   4.943
 2502W        W 3499   6.335   5.809   0.360
 2503W        W 3500   4.672   6.359   0.959
 2504W        W 3501   4.944   0.346   4.545
 2505W        W 3502   7.732   1.634   1.085
 2506W        W 3503   1.000   5.871   6.157
 2507W        W 3504   3.535   5.832   7.183
 2508W        W 3505   4.285   1.510   0.373
 2509W        W 3506   6.059   7.050   0.013
 2510W        W 3507   2.436   1.738   1.533
 2511W        W 3508   0.779   4.868   6.282
 2512W        W 3509   6.609   2.451   5.908
 2513W        W 3510   0.387   3.370   7.539
 2514W        W 3511   1.338   5.068   4.095
 2515W        W 3512   4.436   4.952   4.700
 2516W        W 3513   5.545   2.630   5.819
 2517W        W 3514   1.404   2.020   2.185
 2518W        W 3515   5.132   2.349   6.064
 2519W        W 3516   2.704   7.130   1.074
 2520W        W 3517   0.081   4.084   7.220
 2521W        W 3518   2.168   1.323   7.575
 2522W        W 3519   1.284   0.581   5.247
 2523W        W 3520   3.938   2.545   4.599
 2524W        W 3521   1.451   5.430   3.326
 2525W        W 3522   6.564   4.721   1.683
 2526W        W 3523   1.892   7.075   6.058
 2527W        W 3524   3.305   6.248   3.908
 2528W        W 3525   5.047   1.882   4.796
 2529W        W 3526   7.404   4.451   6.934
 2530W        W 3527   2.725   4.810   0.696
 2531W        W 3528   7.445   5.691   7.374
 2532W        W 3529   5.429   3.434   7.437
 2533W        W 3530   4.773   4.473   2.067
 2534W        W 3531   6.054   0.955   2.444
 2535W        W 3532   6.928   6.967   5.344
 2536W        W 3533   4.544   4.298   2.798
 2537W        W 3534   3.662   7.024   7.143
 2538W        W 3535   7.754   2.915   4.730
 2539W        W 3536   1.880   7.500   6.780
 2540W        W 3537   3.397   2.205   7.298
 2541W        W 3538   2.638   5.580   2.656
 2542W        W 3539   6.586   7.082   1.879
 2543W        W 3540   4.848   0.703   3.729
 2544W        W 3541   3.136   6.729   2.686
 2545W        W 3542   2.348   4.055   1.148
 2546W        W 3543   1.020   6.960   7.857
 2547W        W 3544   0.961   3.154   7.178
 2548W        W 3545   0.508   2.250   4.451
 2549W        W 3546   6.508   3.033   1.689
 2550W        W 3547   5.181   0.446   6.438
 2551W        W 3548   4.795   2.756   5.034
 2552W        W 3549   5.938   5.882   3.728
 2553W        W 3550   3.253   7.249   7.232
 2554W        W 3551   3.636   7.107   4.286
 2555W        W 3552   2.627   2.178   0.225
 2556W        W 3553   1.843   3.847   5.953
 2557W        W 3554   1.382   2.455   5.771
 2558W        W 3555   7.350   7.728   2.054
 2559W        W 3556   4.636   2.873   3.803
 2560W        W 3557   6.603   2.841   0.006
 2561W        W 3558   0.116   2.283   0.522
 2562W        W 3559   0.863   5.963   2.829
 2563W        W 3560   7.716   4.485   2.925
 2564W        W 3561   3.848   3.998   2.857
 2565W        W 3562   3.340   2.351   1.299
 2566W        W 3563   6.099   2.473   1.796
 2567W        W 3564   7.255   5.264   7.623
 2568W        W 3565   7.401   2.665   2.003
 2569W        W 3566   4.008   3.318   0.342
 2570W        W 3567   0.499   4.755   1.322
 2571W        W 3568   5.062   5.024   3.872
 2572W        W 3569   0.352   3.961   6.317
 2573W        W 3570   5.671   5.060   2.273
 2574W        W 3571   0.969   1.205   2.800
 2575W        W 3572   0.752   5.058   0.935
 2576W        W 3573   3.207   2.276   4.889
 2577W        W 3574   4.385   6.437   5.180
 2578W        W 3575   7.356   5.329   4.073
 2579W        W 3576   5.206   5.593   5.697
 2580W        W 3577   4.412   1.606   7.945
 2581W        W 3578   3.461   1.513   3.831
 2582W        W 3579   7.386   1.230   2.345
 2583W        W 3580   2.350   6.068   4.704
 2584W        W 3581   4.935   0.979   7.392
 2585W        W 3582   1.185   6.849   3.728
 2586W        W 3583   4.809   7.666   4.916
 2587W        W 3584   1.461   1.022   3.999
 2588W        W 3585   5.537   3.055   4.506
 2589W        W 3586   2.762   6.512   1.723
 2590W        W 3587   1.038   2.119   2.606
 2591W        W 3588   4.810   3.757   3.169
 2592W        W 3589   1.083   5.656   5.157
 2593W        W 3590   2.196   0.491   2.292
 2594W        W 3591   3.878   4.063   2.239
 2595W        W 3592   4.292   3.186   5.500
 2596W        W 3593   6.480   6.745   3.036
 2597W        W 3594   6.777   7.642   3.739
 2598W        W 3595   0.762   6.766   6.653
 2599W        W 3596   7.490   3.208   7.014
 2600W        W 3597   5.611   6.297   3.644
 2601W        W 3598   4.681   5.141   7.481
 2602W        W 3599   6.710   6.103   0.598
 2603W        W 3600   4.766   5.849   5.820
 2604W        W 3601   1.903   0.933   3.265
 2605W        W 3602   6.676   2.153   7.067
 2606W        W 3603   0.618   7.271   2.359
 2607W        W 3604   2.197   2.656   1.953
 2608W        W 3605   6.139   4.093   3.673
 2609W        W 3606   7.397   1.834   5.380
 2610W        W 3607   5.399   2.034   2.209
 2611W        W 3608   7.627   5.361   6.743
 2612W        W 3609   6.924   3.067   7.126
 2613W        W 3610   7.252   4.129   4.787
 2614W        W 3611   6.126   7.167   3.521
 2615W        W 3612   3.113   4.473   1.188
 2616W        W 3613   1.579   4.825   6.908
 2617W        W 3614   0.923   3.950   6.474
 2618W        W 3615   6.915   2.815   1.792
 2619W        W 3616   2.529   0.223   1.072
 2620W        W 3617   2.588   6.705   3.512
 2621W        W 3618   4.226   4.744   6.801
 2622W        W 3619   6.264   4.465   6.034
 2623W        W 3620   6.873   1.063   0.166
 2624W        W 3621   5.913   3.291   4.130
 2625W        W 3622   0.900   0.799   4.854
 2626W        W 3623   4.417   7.592   1.710
 2627W        W 3624   3.628   7.147   7.756
 2628W        W 3625   4.921   4.007   5.106
 2629W        W 3626   2.027   1.735   7.303
 2630W        W 3627   1.845   6.662   7.885
 2631W        W 3628   6.505   4.558   6.465
 2632W        W 3629   1.938   6.318   0.345
 2633W        W 3630   3.971   3.809   6.387
 2634W        W 3631   6.866   6.457   0.176
 2635W        W 3632   5.227   6.506   2.741
 2636W        W 3633   7.761   5.808   5.718
 2637W        W 3634   5.895   2.844   5.518
 2638W        W 3635   4.647   1.710   2.690
 2639W        W 3636   1.334   1.755   3.481
 2640W        W 3637   6.828   7.374   1.374
 2641W        W 3638   7.032   0.145   7.198
 2642W        W 3639   5.015   4.413   1.647
 2643W        W 3640   2.377   7.658   3.376
 2644W        W 3641   4.227   7.814   2.319
 2645W        W 3642   2.778   1.518   2.149
 2646W        W 3643   3.114   0.284   1.877
 2647W        W 3644   3.112   5.929   0.543
 2648W        W 3645   6.688   4.732   0.235
 2649W        W 3646   1.455   7.857   0.155
 2650W        W 3647   1.257   7.387   3.048
 2651W        W 3648   0.682   6.778   0.893
 2652W        W 3649   0.761   6.207   5.806
 2653W        W 3650   3.093   5.717   6.377
 2654W        W 3651   1.941   2.051   5.285
 2655W        W 3652   2.812   0.644   6.459
 2656W        W 3653   1.236   2.223   0.976
 2657W        W 3654   7.427   2.251   1.110
 2658W        W 3655   4.780   2.316   4.770
 2659W        W 3656   3.384   0.432   5.697
 2660W        W 3657   7.054   2.484   6.316
 2661W        W 3658   5.241   7.376   6.419
 2662W        W 3659   7.014   4.872   5.627
 2663W        W 3660   7.304   7.566   5.508
 2664W        W 3661   5.210   6.529   3.447
 2665W        W 3662   2.503   3.328   4.440
 2666W        W 3663   3.177   7.439   0.985
 2667W        W 3664   5.496   6.863   5.721
 2668W        W 3665   1.265   6.610   6.551
 2669W        W 3666   2.670   1.308   1.681
 2670W        W 3667   1.432   6.112   2.098
 2671W        W 3668   4.557   6.856   5.957
 2672W        W 3669   7.828   4.101   1.053
 2673W        W 3670   5.467   4.236   1.979
 2674W        W 3671   3.857   5.043   7.024
 2675W        W 3672   7.588   6.424   3.991
 2676W        W 3673   1.563   2.120   1.699
 2677W        W 3674   1.312   3.725   6.570
 2678W        W 3675   3.929   1.036   1.031
 2679W        W 3676   6.109   1.360   2.777
 2680W        W 3677   4.303   6.481   6.838
 2681W        W 3678   4.388   3.358   3.107
 2682W        W 3679   1.171   3.364   5.533
 2683W        W 3680   7.431   1.347   7.389
 2684W        W 3681   3.438   0.478   6.425
 2685W        W 3682   2.782   3.308   4.014
 2686W        W 3683   3.462   4.041   7.919
 2687W        W 3684   5.130   1.191   1.112
 2688W        W 3685   6.228   2.505   5.386
 2689W        W 3686   3.890   6.814   6.146
 2690W        W 3687   5.211   7.900   6.282
 2691W        W 3688   2.451   1.045   0.253
 2692W        W 3689   5.116   0.269   2.912
 2693W        W 3690   0.544   5.485   5.421
 2694W        W 3691   4.003   5.369   0.467
 2695W        W 3692   4.037   6.694   4.344
 2696W        W 3693   3.452   6.677   6.000
 2697W        W 3694   7.941   6.055   5.316
 2698W        W 3695   2.360   6.946   4.741
 2699W        W 3696   6.525   1.137   3.432
 2700W        W 3697   1.075   6.621   1.856
 2701W        W 3698   4.791   4.159   7.194
 2702W        W 3699   5.113   3.858   7.496
 2703W        W 3700   3.123   7.930   0.926
 2704W        W 3701   5.332   0.055   0.376
 2705W        W 3702   4.658   5.974   0.586
 2706W        W 3703   7.689   6.814   0.833
 2707W        W 3704   6.705   0.463   6.850
 2708W        W 3705   7.997   0.619   5.394
 2709W        W 3706   0.723   0.353   7.704
 2710W        W 3707   6.503   0.341   6.225
 2711W        W 3708   3.811   7.291   6.022
 2712W        W 3709   4.594   5.518   1.316
 2713W        W 3710   3.435   4.136   1.398
 2714W        W 3711   3.846   3.499   2.137
 2715W        W 3712   5.190   1.025   7.842
 2716W        W 3713   1.686   3.701   0.635
 2717W        W 3714   5.675   0.338   0.975
 2718W        W 3715   5.453   2.644   4.223
 2719W        W 3716   3.707   1.731   7.446
 2720W        W 3717   4.641   0.832   4.653
 2721W        W 3718   5.799   1.516   6.729
 2722W        W 3719   1.796   7.496   0.951
 2723W        W 3720   7.297   4.839   4.492
 2724W        W 3721   5.885   2.144   1.156
 2725W        W 3722   7.584   6.276   1.574
 2726W        W 3723   6.126   0.209   3.525
 2727W        W 3724   4.016   6.331   0.237
 2728W        W 3725   5.477   1.529   4.653
 2729W        W 3726   4.801   5.121   1.656
 2730W        W 3727   4.336   7.618   4.809
 2731W        W 3728   3.910   0.086   4.446
 2732W        W 3729   6.373   4.905   7.174
 2733W        W 3730   7.739   7.456   0.833
 2734W        W 3731   0.761   0.940   5.366
 2735W        W 3732   0.982   3.436   3.674
 2736W        W 3733   6.796   2.900   6.122
 2737W        W 3734   7.473   1.552   3.920
 2738W        W 3735   0.220   1.001   5.359
 2739W        W 3736   0.941   3.356   0.176
 2740W        W 3737   3.463   1.956   2.433
 2741W        W 3738   0.250   1.530   1.152
 2742W        W 3739   4.635   5.937   0.069
 2743W        W 3740   4.674   3.536   2.702
 2744W        W 3741   0.630   6.261   1.041
 2745W        W 3742   5.158   3.024   3.637
 2746W        W 3743   7.152   6.783   3.943
 2747W        W 3744   3.817   5.864   3.572
 2748W        W 3745   2.049   2.758   4.720
 2749W        W 3746   2.636   7.239   3.517
 2750W        W 3747   5.943   0.509   3.955
 2751W        W 3748   2.121   2.068   2.654
 2752W        W 3749   2.067   6.578   5.473
 2753W        W 3750   2.512   7.486   5.134
 2754W        W 3751   0.387   2.810   1.919
 2755W        W 3752   6.324   0.187   4.276
 2756W        W 3753   1.866   7.262   3.833
 2757W        W 3754   4.173   2.329   6.114
 2758W        W 3755   6.491   6.887   2.316
 2759W        W 3756   4.318   3.264   4.015
 2760W        W 3757   6.852   3.196   4.480
 2761W        W 3758   6.506   5.397   6.891
 2762W        W 3759   7.929   3.969   3.127
 2763W        W 3760   6.516   0.948   7.197
 2764W        W 3761   2.589   0.126   4.024
 2765W        W 3762   3.821   6.636   1.848
 2766W        W 3763   7.194   2.185   2.763
 2767W        W 3764   2.995   7.608   3.578
 2768W        W 3765   0.609   2.654   3.781
 2769W        W 3766   5.449   3.143   4.019
 2770W        W 3767   3.265   4.502   4.341
 2771W        W 3768   5.207   5.080   7.280
 2772W        W 3769   3.690   2.010   3.009
 2773W        W 3770   5.853   0.378   1.704
 2774W        W 3771   2.337   2.456   4.426
 2775W        W 3772   4.266   5.567   3.487
 2776W        W 3773   7.176   4.189   5.776
 2777W        W 3774   6.912   6.537   1.504
 2778W        W 3775   3.824   4.257   4.527
 2779W        W 3776   4.083   6.909   0.739
 2780W        W 3777   6.551   6.337   3.385
 2781W        W 3778   4.449   3.025   0.132
 2782W        W 3779   6.007   2.740   4.951
 2783W        W 3780   2.389   6.198   5.755
 2784W        W 3781   7.060   0.992   6.108
 2785W        W 3782   2.876   2.267   4.482
 2786W        W 3783   7.997   7.211   6.058
 2787W        W 3784   4.297   1.238   7.592
 2788W        W 3785   5.536   1.543   0.854
 2789W        W 3786   7.716   4.618   6.419
 2790W        W 3787   0.216   2.031   1.173
 2791W        W 3788   0.617   3.578   1.046
 2792W        W 3789   5.772   2.082   7.512
 2793W        W 3790   7.672   3.288   5.198
 2794W        W 3791   6.164   0.806   7.529
 2795W        W 3792   6.859   6.702   3.503
 2796W        W 3793   4.176   1.545   6.597
 2797W        W 3794   3.814   1.110   4.758
 2798W        W 3795   7.371   1.735   2.626
 2799W        W 3796   7.463   6.667   4.408
 2800W        W 3797   2.099   4.948   1.359
 2801W        W 3798   1.979   2.925   5.196
 2802W        W 3799   3.567   2.859   4.372
 2803W        W 3800   4.035   6.915   6.663
 2804W        W 3801   0.837   1.481   6.899
 2805W        W 3802   4.079   2.097   6.622
 2806W        W 3803   1.239   6.828   0.948
 2807W        W 3804   5.523   0.151   3.237
 2808W        W 3805   3.007   3.151   4.463
 2809W        W 3806   2.301   0.606   3.159
 2810W        W 3807   2.064   7.514   6.003
 2811W        W 3808   6.560   1.717   6.454
 2812W        W 3809   5.200   2.707   0.208
 2813W        W 3810   0.113   2.912   1.570
 2814W        W 3811   6.683   3.322   2.064
 2815W        W 3812   4.180   1.537   4.027
 2816W        W 3813   1.134   0.975   3.303
 2817W        W 3814   2.335   1.946   4.406
 2818W        W 3815   5.521   0.287   5.946
 2819W        W 3816   4.661   3.696   6.931
 2820W        W 3817   4.648   5.509   2.021
 2821W        W 3818   1.514   2.009   6.748
 2822W        W 3819   5.439   6.812   5.209
 2823W        W 3820   0.477   4.680   7.818
 2824W        W 3821   4.463   2.393   4.383
 2825W        W 3822   2.908   0.750   2.849
 2826W        W 3823   6.942   4.132   2.518
 2827W        W 3824   6.941   1.260   5.189
 2828W        W 3825   0.193   4.663   2.090
 2829W        W 3826   6.306   3.879   4.150
 2830W        W 3827   4.621   4.786   3.974
 2831W        W 3828   7.592   0.064   3.783
 2832W        W 3829   5.298   5.955   6.066
 2833W        W 3830   1.740   0.626   7.870
 2834W        W 3831   3.233   1.042   4.825
 2835W        W 3832   0.961   5.005   7.124
 2836W        W 3833   7.971   4.394   3.352
 2837W        W 3834   7.875   5.553   3.502
 2838W        W 3835   7.847   5.814   1.770
 2839W        W 3836   4.836   0.853   6.407
 2840W        W 3837   1.339   0.179   6.485
 2841W        W 3838   3.147   5.745   5.887
 2842W        W 3839   1.844   2.214   4.828
 2843W        W 3840   3.966   4.713   7.561
 2844W        W 3841   3.231   0.502   3.725
 2845W        W 3842   3.846   1.435   2.737
 2846W        W 3843   5.974   6.562   0.828
 2847W        W 3844   1.681   2.878   2.678
 2848W        W 3845   7.958   3.791   7.836
 2849W        W 3846   3.629   0.469   7.455
 2850W        W 3847   1.492   4.113   0.441
 2851W        W 3848   4.536   6.672   1.547
 2852W        W 3849   6.950   4.984   4.108
 2853W        W 3850   7.187   1.433   0.056
 2854W        W 3851   2.957   1.383   7.034
 2855W        W 3852   7.131   6.392   4.615
 2856W        W 3853   7.471   6.588   2.948
 2857W        W 3854   6.740   5.774   6.680
 2858W        W 3855   1.848   4.244   7.305
 2859W        W 3856   7.347   5.199   5.365
 2860W        W 3857   6.027   5.222   5.402
 2861W        W 3858   0.199   4.902   2.766
 2862W        W 3859   0.103   1.926   5.540
 2863W        W 3860   3.458   1.292   6.421
 2864W        W 3861   4.924   7.144   5.798
 2865W        W 3862   1.753   3.227   0.841
 2866W        W 3863   0.011   0.347   6.489
 2867W        W 3864   4.403   5.594   6.848
 2868W        W 3865   0.038   1.318   7.673
 2869W        W 3866   1.552   3.619   4.057
 2870W        W 3867   3.051   6.778   6.892
 2871W        W 3868   1.999   6.453   4.619
 2872W        W 3869   1.700   0.416   3.184
 2873W        W 3870   2.213   7.194   0.983
 2874W        W 3871   6.255   0.468   0.821
 2875W        W 3872   5.005   1.973   5.732
 2876W        W 3873   0.570   4.590   2.863
 2877W        W 3874   3.708   5.585   0.030
 2878W        W 3875   5.793   5.722   6.116
 2879W        W 3876   7.382   5.652   7.936
 2880W        W 3877   4.357   3.115   6.390
 2881W        W 3878   1.294   7.133   2.618
 2882W        W 3879   7.555   5.064   6.251
 2883W        W 3880   5.725   3.392   1.641
 2884W        W 3881   5.662   0.735   5.122
 2885W        W 3882   6.843   6.020   6.234
 2886W        W 3883   3.298   2.570   5.788
 2887W        W 3884   7.351   1.161   3.073
 2888W        W 3885   4.334   2.648   4.820
 2889W        W 3886   3.062   3.244   3.540
 2890W        W 3887   0.854   0.066   3.326
 2891W        W 3888   0.322   1.238   0.690
 2892W        W 3889   0.511   5.687   3.208
 2893W        W 3890   1.297   7.142   5.489
 2894W        W 3891   7.196   4.701   4.959
 2895W        W 3892   4.532   1.628   5.858
 2896W        W 3893   7.669   7.724   6.275
 2897W        W 3894   0.802   6.497   3.760
 2898W        W 3895   6.560   6.379   6.363
 2899W        W 3896   3.797   1.379   0.326
 2900W        W 3897   6.368   0.883   3.857
 2901W        W 3898   3.737   2.173   6.263
 2902W        W 3899   7.161   5.829   5.822
 2903W        W 3900   3.023   0.525   4.222
 2904W        W 3901   0.586   1.288   5.096
 2905W        W 3902   7.395   2.613   2.506
 2906W        W 3903   3.339   1.113   0.121
 2907W        W 3904   1.069   6.801   5.081
 2908W        W 3905   1.576   7.372   4.357
 2909W        W 3906   0.269   3.535   4.534
 2910W        W 3907   4.395   6.037   6.675
 2911W        W 3908   2.917   0.717   1.827
 2912W        W 3909   7.936   0.045   3.374
 2913W        W 3910   4.820   1.380   1.488
 2914W        W 3911   5.654   5.918   6.928
 2915W        W 3912   3.329   4.732   1.585
 2916W        W 3913   5.061   1.881   6.200
 2917W        W 3914   6.287   3.901   7.209
 2918W        W 3915   5.218   7.600   6.861
 2919W        W 3916   6.414   6.968   6.282
 2920W        W 3917   6.056   3.713   0.443
 2921W        W 3918   2.456   2.126   3.058
 2922W        W 3919   4.299   4.938   0.303
 2923W        W 3920   4.535   3.129   1.100
 2924W        W 3921   4.431   3.785   3.552
 2925W        W 3922   5.945   4.666   5.380
 2926W        W 3923   3.115   7.387   7.729
 2927W        W 3924   1.485   7.108   5.036
 2928W        W 3925   2.879   2.641   1.273
 2929W        W 3926   5.584   6.238   2.162
 2930W        W 3927   3.604   3.791   1.787
 2931W        W 3928   5.474   0.937   0.396
 2932W        W 3929   4.891   3.539   4.947
 2933W        W 3930   4.135   7.007   5.707
 2934W        W 3931   2.626   5.089   2.396
 2935W        W 3932   4.911   2.512   5.450
 2936W        W 3933   5.991   7.197   0.743
 2937W        W 3934   2.566   3.027   0.228
 2938W        W 3935   1.639   2.667   7.350
 2939W        W 3936   1.709   2.541   5.395
 2940W        W 3937   6.757   7.780   4.432
 2941W        W 3938   1.482   4.089   7.696
 2942W        W 3939   7.366   2.889   4.010
 2943W        W 3940   0.833   4.579   5.175
 2944W        W 3941   0.620   4.815   3.816
 2945W        W 3942   7.425   1.828   6.828
 2946W        W 3943   5.314   5.322   3.530
 2947W        W 3944   3.620   1.601   1.189
 2948W        W 3945   3.005   1.747   0.189
 2949W        W 3946   4.818   4.703   6.672
 2950W        W 3947   6.049   3.731   6.692
 2951W        W 3948   7.040   2.248   7.471
 2952W        W 3949   2.837   2.853   1.729
 2953W        W 3950   5.157   2.816   2.233
 2954W        W 3951   1.168   2.728   7.465
 2955W        W 3952   2.291   0.105   0.592
 2956W        W 3953   5.155   7.009   2.498
 2957W        W 3954   5.591   5.385   7.412
 2958W        W 3955   5.689   2.749   3.395
 2959W        W 3956   0.989   7.181   5.893
 2960W        W 3957   6.030   7.377   6.199
 2961W        W 3958   4.826   7.426   5.397
 2962W        W 3959   3.940   7.340   2.486
 2963W        W 3960   1.952   6.073   6.014
 2964W        W 3961   5.992   7.705   1.618
 2965W        W 3962   4.662   3.089   7.772
 2966W        W 3963   6.305   3.372   2.875
 2967W        W 3964   4.055   2.844   4.184
 2968W        W 3965   3.670   7.549   7.346
 2969W        W 3966   3.107   4.155   6.390
 2970W        W 3967   4.697   4.268   4.767
 2971W        W 3968   7.484   5.038   0.358
 2972W        W 3969   2.018   1.156   6.546
 2973W        W 3970   6.581   4.574   5.619
 2974W        W 3971   2.468   4.585   7.133
 2975W        W 3972   6.267   2.332   7.882
 2976W        W 3973   5.195   6.807   6.129
 2977W        W 3974   1.967   3.374   7.300
 2978W        W 3975   2.384   6.654   7.205
 2979W        W 3976   3.565   6.423   2.238
 2980W        W 3977   4.917   6.443   7.328
 2981W        W 3978   2.490   3.171   5.611
 2982W        W 3979   7.359   0.249   4.208
 2983W        W 3980   6.546   1.892   0.675
 2984W        W 3981   1.656   6.815   3.614
 2985W        W 3982   2.814   5.380   0.765
 2986W        W 3983   7.356   0.399   6.885
 2987W        W 3984   3.847   1.849   3.887
 2988W        W 3985   4.835   6.747   6.495
 2989W        W 3986   1.709   4.198   2.667
 2990W        W 3987   2.627   0.199   2.204
 2991W        W 3988   7.965   4.383   6.936
 2992W        W 3989   4.598   7.895   6.204
 2993W        W 3990   6.237   5.294   4.611
 2994W        W 3991   0.529   2.351   0.221
 2995W        W 3992   3.222   3.049   1.437
 2996W        W 3993   1.865   7.054   5.545
 2997W        W 3994   1.870   4.466   4.112
 2998W        W 3995   2.052   2.898   0.179
 2999W        W 3996   2.206   2.504   5.098
 3000W        W 3997   0.199   2.664   2.385
 3001W        W 3998   2.388   2.894   3.322
 3002W        W 3999   4.762   3.283   6.702
 3003W        W 4000   0.011   6.640   2.133
 3004W        W 4001   0.424   4.086   2.870
 3005W        W 4002   4.348   6.071   2.605
 3006W        W 4003   7.746   4.835   3.349
 3007W        W 4004   2.374   0.800   3.608
 3008W        W 4005   0.866   5.105   7.626
 3009W        W 4006   6.581   2.494   1.553
 3010W        W 4007   0.096   2.253   4.014
 3011W        W 4008   4.731   5.343   5.846
 3012W        W 4009   0.201   6.891   4.609
 3013W        W 4010   7.823   6.377   6.175
 3014W        W 4011   7.460   3.734   4.470
 3015W        W 4012   2.260   6.919   2.093
 3016W        W 4013   1.655   6.398   5.748
 3017W        W 4014   6.106   5.019   0.801
 3018W        W 4015   5.124   1.674   4.270
 3019W        W 4016   0.754   7.033   5.499
 3020W        W 4017   7.116   3.414   2.333
 3021W        W 4018   1.705   6.551   6.245
 3022W        W 4019   3.506   3.556   3.897
 3023W        W 4020   4.222   5.349   7.994
 3024W        W 4021   3.798   1.987   2.012
 3025W        W 4022   2.484   0.855   1.479
 3026W        W 4023   2.493   0.891   5.441
 3027W        W 4024   1.903   4.814   6.494
 3028W        W 4025   1.995   1.598   5.111
 3029W        W 4026   7.211   6.690   6.082
 3030W        W 4027   7.024   6.258   6.679
 3031W        W 4028   5.457   1.338   7.069
 3032W        W 4029   4.997   7.370   2.187
 3033W        W 4030   3.320   5.956   4.833
 3034W        W 4031   5.305   1.714   6.755
 3035W        W 4032   5.463   5.398   0.493
 3036W        W 4033   6.219   6.928   7.135
 3037W        W 4034   6.839   7.016   2.689
 3038W        W 4035   0.265   3.825   1.387
 3039W        W 4036   7.118   1.325   4.286
 3040W        W 4037   6.967   3.881   2.949
 3041W        W 4038   7.328   3.863   2.312
 3042W        W 4039   4.550   0.363   7.039
 3043W        W 4040   0.932   1.406   5.423
 3044W        W 4041   6.257   4.506   7.463
 3045W        W 4042   6.836   0.740   3.996
 3046W        W 4043   3.410   7.503   3.382
 3047W        W 4044   2.245   3.002   6.036
 3048W        W 4045   1.736   3.761   4.586
 3049W        W 4046   1.303   6.840   4.637
 3050W        W 4047   5.838   1.012   6.843
 3051W        W 4048   1.146   1.681   6.469
 3052W        W 4049   1.109   6.546   2.791
 3053W        W 4050   2.838   6.456   7.571
 3054W        W 4051   7.641   0.391   2.676
 3055W        W 4052   0.761   4.388   6.603
 3056W        W 4053   2.032   4.469   1.172
 3057W        W 4054   5.249   6.548   4.832
 3058W        W 4055   0.823   2.017   2.145
 3059W        W 4056   6.092   0.274   1.284
 3060W        W 4057   2.240   0.195   2.898
 3061W        W 4058   6.921   1.503   6.044
 3062W        W 4059   2.090   6.952   1.632
 3063W        W 4060   0.868   6.791   2.487
 3064W        W 4061   3.458   7.616   0.611
 3065W        W 4062   6.345   4.669   4.617
 3066W        W 4063   3.035   5.330   1.266
 3067W        W 4064   5.119   0.728   4.881
 3068W        W 4065   3.309   3.119   2.635
 3069W        W 4066   2.782   0.521   3.309
 3070W        W 4067   7.962   3.768   6.359
 3071W        W 4068   0.510   7.646   1.389
 3072W        W 4069   5.491   2.630   6.781
 3073W        W 4070   0.082   3.144   2.636
 3074W        W 4071   6.792   4.912   4.668
 3075W        W 4072   6.795   1.871   3.414
 3076W        W 4073   5.071   3.741   6.542
 3077W        W 4074   4.433   2.152   2.679
 3078W        W 4075   7.477   0.812   1.332
 3079W        W 4076   1.671   5.985   4.610
 3080W        W 4077   3.612   2.999   2.269
 3081W        W 4078   1.716   3.265   0.226
 3082W        W 4079   6.862   1.258   6.570
 3083W        W 4080   3.182   2.071   6.049
 3084W        W 4081   1.807   0.803   4.299
 3085W        W 4082   5.569   3.620   3.944
 3086W        W 4083   7.057   2.002   0.095
 3087W        W 4084   4.712   3.321   3.477
 3088W        W 4085   6.481   4.268   0.208
 3089W        W 4086   6.110   6.320   6.552
 3090W        W 4087   3.480   3.995   5.478
 3091W        W 4088   1.253   6.368   6.075
 3092W        W 4089   4.509   2.980   2.716
 3093W        W 4090   7.290   4.529   1.008
 3094W        W 4091   0.824   3.061   4.860
 3095W        W 4092   5.076   2.845   2.800
 3096W        W 4093   4.312   5.065   4.226
 3097W        W 4094   2.550   3.855   5.265
 3098W        W 4095   4.730   5.030   2.123
 3099W        W 4096   5.302   4.533   3.096
 3100W        W 4097   5.460   7.517   2.475
 3101W        W 4098   5.535   5.510   2.482
 3102W        W 4099   3.270   3.087   4.014
 3103W        W 4100   5.425   1.206   4.254
 3104W        W 4101   7.820   1.633   1.681
 3105W        W 4102   3.135   4.905   0.947
 3106W        W 4103   1.015   7.828   1.460
 3107W        W 4104   5.179   2.493   0.708
 3108W        W 4105   4.732   0.192   6.578
 3109W        W 4106   6.118   1.947   1.675
 3110W        W 4107   5.865   0.965   1.984
 3111NA+     NA 4108   1.608   1.490   1.416
 3112NA+     NA 4109   0.266   3.307   6.067
 3113NA+     NA 4110   4.262   7.625   6.543
 3114NA+     NA 4111   1.334   5.273   7.004
 3115NA+     NA 4112   2.405   3.182   5.125
 3116NA+     NA 4113   5.659   4.976   2.782
 3117NA+     NA 4114   0.108   5.363   5.096
 3118NA+     NA 4115   4.218   6.098   3.471
 3119NA+     NA 4116   6.899   1.528   7.660
 3120NA+     NA 4117   1.362   4.615   3.381
 3121NA+     NA 4118   0.058   2.030   4.773
 3122NA+     NA 4119   2.568   3.468   6.353
 3123NA+     NA 4120   7.276   2.491   0.280
 3124NA+     NA 4121   0.198   1.316   1.688
 3125NA+     NA 4122   6.613   7.421   6.380
 3126NA+     NA 4123   2.628   3.594   2.729
 3127NA+     NA 4124   3.020   1.291   5.221
 3128NA+     NA 4125   7.324   0.298   1.252
 3129NA+     NA 4126   4.232   3.931   7.043
 3130NA+     NA 4127   2.291   0.858   7.014
 3131NA+     NA 4128   7.743   2.535   6.986
 3132NA+     NA 4129   5.643   4.973   1.712
 3133NA+     NA 4130   1.802   3.796   0.068
 3134NA+     NA 4131   1.614   5.297   3.790
 3135NA+     NA 4132   3.114   6.425   0.093
 3136NA+     NA 4133   6.342   3.027   5.733
 3137NA+     NA 4134   3.022   1.017   1.382
 3138NA+     NA 4135   7.298   7.951   2.552
 3139NA+     NA 4136   4.943   4.920   7.811
 3140NA+     NA 4137   3.337   2.878   3.083
 3141NA+     NA 4138   6.334   2.871   1.214
 3142NA+     NA 4139   7.000   1.626   3.893
 3143NA+     NA 4140   6.335   6.960   4.023
 3144NA+     NA 4141   7.776   5.874   7.021
 3145NA+     NA 4142   3.507   3.142   5.294
 3146NA+     NA 4143   5.241   3.473   4.395
 3147NA+     NA 4144   6.605   4.633   3.981
 3148NA+     NA 4145   6.580   2.519   7.484
 3149NA+     NA 4146   2.564   0.491   4.434
 3150NA+     NA 4147   2.532   6.671   0.820
 3151NA+     NA 4148   0.056   0.427   2.832
 3152NA+     NA 4149   6.373   3.359   3.339
 3153NA+     NA 4150   3.810   5.574   0.861
 3154NA+     NA 4151   6.034   3.740   0.950
 3155NA+     NA 4152   5.814   0.605   7.206
 3156NA+     NA 4153   2.414   3.338   3.550
 3157NA+     NA 4154   1.266   3.859   5.422
 3158NA+     NA 4155   1.693   7.448   6.320
 3159NA+     NA 4156   7.587   5.823   0.334
 3160NA+     NA 4157   1.116   5.761   4.478
 3161NA+     NA 4158   0.785   4.239   2.560
 3162NA+     NA 4159   7.941   6.739   7.309
 3163NA+     NA 4160   5.107   6.191   5.599
 3164NA+     NA 4161   2.370   4.307   4.069
 3165NA+     NA 4162   4.291   7.260   5.202
 3166NA+     NA 4163   0.615   4.878   2.424
 3167NA+     NA 4164   4.453   4.650   6.316
 3168NA+     NA 4165   3.843   0.785   5.595
 3169NA+     NA 4166   4.616   1.846   1.382
 3170NA+     NA 4167   4.329   4.651   0.978
 3171NA+     NA 4168   3.839   5.018   1.902
 3172NA+     NA 4169   3.303   4.917   6.917
 3173NA+     NA 4170   4.886   3.186   5.348
 3174NA+     NA 4171   4.848   2.928   6.281
 3175NA+     NA 4172   5.135   4.834   0.711
 3176NA+     NA 4173   3.090   7.742   7.182
 3177NA+     NA 4174   1.279   7.200   7.412
 3178NA+     NA 4175   3.090   7.656   1.864
 3179NA+     NA 4176   6.805   6.437   2.152
 3180NA+     NA 4177   0.950   7.602   7.897
 3181NA+     NA 4178   7.788   2.970   6.560
 3182NA+     NA 4179   1.483   2.462   2.911
 3183NA+     NA 4180   1.471   1.984   5.645
 3184NA+     NA 4181   6.875   3.095   0.971
 3185NA+     NA 4182   4.330   1.230   4.911
 3186NA+     NA 4183   1.544   5.166   0.676
 3187NA+     NA 4184   7.516   3.142   2.407
 3188NA+     NA 4185   2.339   1.238   5.069
 3189NA+     NA 4186   0.105   3.608   2.334
 3190NA+     NA 4187   5.573   7.132   2.179
 3191NA+     NA 4188   5.732   7.474   3.623
 3192NA+     NA 4189   0.075   6.754   4.087
 3193NA+     NA 4190   1.379   4.820   5.301
 3194NA+     NA 4191   5.623   3.214   3.584
 3195NA+     NA 4192   3.070   7.349   3.021
 3196NA+     NA 4193   1.471   7.468   0.395
 3197NA+     NA 4194   6.999   5.985   7.067
 3198NA+     NA 4195   2.774   5.314   6.002
 3199NA+     NA 4196   3.916   3.835   3.337
 3200NA+     NA 4197   0.722   6.187   4.321
 3201NA+     NA 4198   1.534   6.012   6.275
 3202NA+     NA 4199   6.458   6.458   7.333
 3203NA+     NA 4200   0.556   5.789   2.392
 3204NA+     NA 4201   7.381   6.703   1.307
 3205NA+     NA 4202   6.677   0.579   0.207
 3206NA+     NA 4203   6.117   7.001   4.924
 3207NA+     NA 4204   6.544   4.202   4.525
 3208NA+     NA 4205   4.495   2.886   6.830
 3209NA+     NA 4206   7.326   6.667   3.432
 3210NA+     NA 4207   3.079   5.876   1.077
   8.00000   8.00000   8.00000
