[ max_clust ]
21
22
23
24
25
26
27
28
29
30
31
32
33
34
35
36
37
38
39
40
41
42
43
44
45
46
47
48
49
50
61
62
63
64
65
66
67
68
69
70
71
72
73
74
75
76
77
78
79
80
81
82
83
84
85
86
87
88
89
90
91
92
93
94
95
96
97
98
99
100
101
102
103
104
105
106
107
108
109
110
121
122
123
124
125
126
127
128
129
130
131
132
133
134
135
136
137
138
139
140
141
142
143
144
145
146
147
148
149
150
161
162
163
164
165
166
167
168
169
170
181
182
183
184
185
186
187
188
189
190
201
202
203
204
205
206
207
208
209
210
211
212
213
214
215
216
217
218
219
220
221
222
223
224
225
226
227
228
229
230
251
252
253
254
255
256
257
258
259
260
261
262
263
264
265
266
267
268
269
270
281
282
283
284
285
286
287
288
289
290
311
312
313
314
315
316
317
318
319
320
331
332
333
334
335
336
337
338
339
340
351
352
353
354
355
356
357
358
359
360
411
412
413
414
415
416
417
418
419
420
431
432
433
434
435
436
437
438
439
440
441
442
443
444
445
446
447
448
449
450
451
452
453
454
455
456
457
458
459
460
461
462
463
464
465
466
467
468
469
470
481
482
483
484
485
486
487
488
489
490
491
492
493
494
495
496
497
498
499
500
501
502
503
504
505
506
507
508
509
510
511
512
513
514
515
516
517
518
519
520
531
532
533
534
535
536
537
538
539
540
541
542
543
544
545
546
547
548
549
550
561
562
563
564
565
566
567
568
569
570
571
572
573
574
575
576
577
578
579
580
601
602
603
604
605
606
607
608
609
610
611
612
613
614
615
616
617
618
619
620
621
622
623
624
625
626
627
628
629
630
641
642
643
644
645
646
647
648
649
650
661
662
663
664
665
666
667
668
669
670
681
682
683
684
685
686
687
688
689
690
711
712
713
714
715
716
717
718
719
720
721
722
723
724
725
726
727
728
729
730
741
742
743
744
745
746
747
748
749
750
791
792
793
794
795
796
797
798
799
800
821
822
823
824
825
826
827
828
829
830
831
832
833
834
835
836
837
838
839
840
841
842
843
844
845
846
847
848
849
850
851
852
853
854
855
856
857
858
859
860
871
872
873
874
875
876
877
878
879
880
901
902
903
904
905
906
907
908
909
910
911
912
913
914
915
916
917
918
919
920
921
922
923
924
925
926
927
928
929
930
931
932
933
934
935
936
937
938
939
940
941
942
943
944
945
946
947
948
949
950
971
972
973
974
975
976
977
978
979
980
