Generated by trjconv : Martini system from ../2_Creating_coordinates/TYR-SER-TYR_aa.pdb t=   0.00000
 1000
    1TYR     BB    1   4.239   1.418   4.832  0.3185 -0.0358 -0.4070
    1TYR    SC1    2   4.070   1.224   4.671  0.1183 -0.1292  0.0631
    1TYR    SC2    3   4.079   1.047   4.467 -0.0529  0.2556 -0.2984
    1TYR    SC3    4   3.845   1.103   4.588  0.0521  0.0097  0.0371
    2SER     BB    5   4.499   1.479   4.648 -0.1497  0.1167 -0.1052
    2SER    SC1    6   4.721   1.603   4.735  0.0347 -0.1824 -0.1205
    3TYR     BB    7   4.556   1.225   4.469  0.0998  0.0272 -0.0876
    3TYR    SC1    8   4.482   1.207   4.193  0.0741 -0.1283 -0.0368
    3TYR    SC2    9   4.252   1.196   4.051  0.0441  0.0675 -0.0073
    3TYR    SC3   10   4.474   1.297   3.939  0.0459  0.1301  0.0520
    1TYR     BB   11   3.515   2.310   3.775 -0.2122  0.0538 -0.1472
    1TYR    SC1   12   3.673   2.078   3.742 -0.1427 -0.2348  0.0393
    1TYR    SC2   13   3.736   1.832   3.650  0.1369 -0.2373  0.2221
    1TYR    SC3   14   3.628   1.860   3.895 -0.0148 -0.1839  0.1513
    2SER     BB   15   3.177   2.156   3.752 -0.1508  0.2234  0.1388
    2SER    SC1   16   3.051   2.362   3.817 -0.2239  0.3194 -0.3234
    3TYR     BB   17   3.193   1.895   3.715 -0.0819  0.0353 -0.3542
    3TYR    SC1   18   3.275   1.786   3.471 -0.0188  0.1381 -0.3221
    3TYR    SC2   19   3.435   1.780   3.253 -0.2524  0.1034 -0.4977
    3TYR    SC3   20   3.167   1.761   3.225 -0.2637 -0.5720 -0.1733
    1TYR     BB   21   5.427   4.928   3.126  0.1462  0.0354  0.4006
    1TYR    SC1   22   5.624   4.777   2.936 -0.0814 -0.0218 -0.1331
    1TYR    SC2   23   5.642   4.592   2.739 -0.1753  0.0615 -0.2219
    1TYR    SC3   24   5.822   4.793   2.752 -0.2033  0.0888 -0.2573
    2SER     BB   25   5.574   5.145   3.346  0.0989  0.5460 -0.0646
    2SER    SC1   26   5.453   5.175   3.579 -0.0903 -0.3943  0.2037
    3TYR     BB   27   5.606   5.514   3.243 -0.1042 -0.0853 -0.5570
    3TYR    SC1   28   5.314   5.538   3.127 -0.1606 -0.1931  0.1519
    3TYR    SC2   29   5.214   5.447   2.892 -0.0329  0.1505 -0.0446
    3TYR    SC3   30   5.132   5.685   2.991  0.0201  0.0748  0.1905
    1TYR     BB   31   4.400   0.820   3.792  0.0033  0.2101  0.1021
    1TYR    SC1   32   4.124   0.720   3.853 -0.0846 -0.0366 -0.2331
    1TYR    SC2   33   3.967   0.501   3.834 -0.2587  0.0707 -0.0764
    1TYR    SC3   34   3.885   0.713   3.983  0.1289  0.0449  0.1867
    2SER     BB   35   4.375   0.911   3.444  0.0933 -0.0943  0.2623
    2SER    SC1   36   4.285   0.718   3.325 -0.2070 -0.2846  0.0022
    3TYR     BB   37   4.333   1.262   3.456 -0.5374  0.0751 -0.1073
    3TYR    SC1   38   4.559   1.292   3.258  0.2723  0.2506  0.0386
    3TYR    SC2   39   4.762   1.463   3.209  0.3809  0.0494 -0.2508
    3TYR    SC3   40   4.721   1.251   3.047 -0.2136  0.2136 -0.3532
    1TYR     BB   41   4.340   2.748   4.767 -0.4367  0.3774 -0.2042
    1TYR    SC1   42   4.503   2.741   4.969 -0.1166  0.4009 -0.0451
    1TYR    SC2   43   4.533   2.723   5.237 -0.0021  0.5384 -0.0470
    1TYR    SC3   44   4.727   2.633   5.071 -0.1202  0.3527 -0.0880
    2SER     BB   45   4.163   2.418   4.713 -0.0516 -0.0539 -0.2929
    2SER    SC1   46   4.114   2.329   4.937  0.0327  0.1088  0.0710
    3TYR     BB   47   3.945   2.413   4.470  0.0566  0.1083 -0.1332
    3TYR    SC1   48   3.728   2.281   4.411  0.2136 -0.0850 -0.1957
    3TYR    SC2   49   3.493   2.274   4.277  0.2123 -0.1547 -0.1903
    3TYR    SC3   50   3.613   2.043   4.352  0.0267 -0.1189  0.2500
    1TYR     BB   51   2.726   3.735   2.600  0.2459 -0.0013 -0.4717
    1TYR    SC1   52   2.558   3.798   2.386 -0.0108  0.1182  0.2307
    1TYR    SC2   53   2.422   3.969   2.226  0.2086 -0.0076 -0.1029
    1TYR    SC3   54   2.305   3.741   2.309 -0.1107  0.3148  0.4002
    2SER     BB   55   2.925   3.973   2.694  0.0949 -0.2491 -0.1719
    2SER    SC1   56   2.871   4.086   2.936 -0.0953 -0.0561  0.2099
    3TYR     BB   57   2.937   4.221   2.452  0.3582 -0.0602 -0.0726
    3TYR    SC1   58   2.689   4.362   2.403 -0.2096 -0.3464 -0.2784
    3TYR    SC2   59   2.578   4.608   2.383  0.2068 -0.1438 -0.2260
    3TYR    SC3   60   2.469   4.399   2.250 -0.2240  0.0377 -0.1767
    1TYR     BB   61   7.017   4.983   3.409  0.5034 -0.2944 -0.4287
    1TYR    SC1   62   7.012   5.152   3.176  0.0986 -0.1871 -0.1072
    1TYR    SC2   63   6.928   5.202   2.924 -0.1465  0.2571  0.0505
    1TYR    SC3   64   7.167   5.294   3.008  0.0690 -0.1403 -0.0951
    2SER     BB   65   6.694   4.823   3.648 -0.2403  0.3836  0.0932
    2SER    SC1   66   6.752   4.568   3.699 -0.4063 -0.0984 -0.2163
    3TYR     BB   67   6.487   5.062   3.776 -0.1531 -0.3517  0.1576
    3TYR    SC1   68   6.549   5.237   3.988 -0.1086  0.0380  0.2498
    3TYR    SC2   69   6.669   5.449   4.104  0.1824 -0.1168  0.2417
    3TYR    SC3   70   6.583   5.243   4.257 -0.0776 -0.0082  0.2472
    1TYR     BB   71   5.400   4.139   5.419  0.1951  0.0509 -0.2775
    1TYR    SC1   72   5.589   4.352   5.517 -0.0652  0.0628 -0.2540
    1TYR    SC2   73   5.560   4.616   5.566 -0.1392 -0.0611  0.5404
    1TYR    SC3   74   5.805   4.512   5.522 -0.1536  0.1863 -0.3447
    2SER     BB   75   5.571   3.887   5.224  0.1806 -0.3925  0.3413
    2SER    SC1   76   5.768   3.721   5.259 -0.0729  0.2178 -0.0740
    3TYR     BB   77   5.477   3.924   4.909  0.2070 -0.0485 -0.1691
    3TYR    SC1   78   5.659   3.773   4.718  0.1910 -0.1001  0.2147
    3TYR    SC2   79   5.921   3.781   4.657  0.2133 -0.0988  0.3084
    3TYR    SC3   80   5.769   3.578   4.568  0.1434  0.1336 -0.1376
    1TYR     BB   81   0.818   5.139   3.252  0.2207  0.2860 -0.0160
    1TYR    SC1   82   0.670   5.397   3.342  0.1736 -0.0916 -0.3613
    1TYR    SC2   83   0.520   5.552   3.505  0.4619 -0.2450  0.0758
    1TYR    SC3   84   0.578   5.636   3.255 -0.1091 -0.0628 -0.0170
    2SER     BB   85   0.916   4.961   3.569  0.3419 -0.1842  0.1721
    2SER    SC1   86   0.868   4.752   3.520 -0.0906 -0.2361  0.1194
    3TYR     BB   87   1.044   5.185   3.693 -0.1963  0.1481  0.0749
    3TYR    SC1   88   1.102   5.462   3.552  0.0617  0.0786  0.3219
    3TYR    SC2   89   0.986   5.701   3.502 -0.0108 -0.0383 -0.1219
    3TYR    SC3   90   1.245   5.658   3.436  0.0559 -0.0338  0.1207
    1TYR     BB   91   3.821   3.017   2.710 -0.0428  0.0986 -0.1818
    1TYR    SC1   92   3.566   3.037   2.630  0.2515  0.3945 -0.2560
    1TYR    SC2   93   3.368   2.893   2.517  0.0763  0.4093  0.0189
    1TYR    SC3   94   3.434   3.132   2.414  0.2216  0.2358 -0.3102
    2SER     BB   95   3.859   3.117   3.052  0.2616 -0.0353 -0.1662
    2SER    SC1   96   3.628   3.047   3.172  0.1610  0.1384  0.3158
    3TYR     BB   97   4.122   3.110   3.113  0.0469  0.0988 -0.0098
    3TYR    SC1   98   4.303   3.184   2.907  0.2593 -0.0360 -0.0435
    3TYR    SC2   99   4.296   3.362   2.704 -0.0887 -0.0494 -0.0526
    3TYR    SC3  100   4.516   3.209   2.742  0.4096  0.6575  0.2058
    1TYR     BB  101   1.869   5.216   4.393  0.0612 -0.3030  0.2304
    1TYR    SC1  102   1.634   5.333   4.520 -0.1929  0.1480 -0.3493
    1TYR    SC2  103   1.401   5.469   4.555 -0.2266  0.0282 -0.0841
    1TYR    SC3  104   1.444   5.235   4.684 -0.0024 -0.0102 -0.2187
    2SER     BB  105   1.970   4.977   4.627 -0.0678 -0.3516 -0.0201
    2SER    SC1  106   1.864   5.008   4.824 -0.3883  0.2087 -0.1575
    3TYR     BB  107   2.216   4.741   4.649 -0.2192  0.1465 -0.0537
    3TYR    SC1  108   2.063   4.476   4.647 -0.0602  0.1659  0.0442
    3TYR    SC2  109   1.846   4.316   4.637 -0.0827  0.2078 -0.1982
    3TYR    SC3  110   2.088   4.211   4.694 -0.1287  0.1214 -0.1590
    1TYR     BB  111   3.557   1.396   3.693 -0.2144 -0.0420 -0.1021
    1TYR    SC1  112   3.302   1.372   3.625  0.2291  0.1030  0.3292
    1TYR    SC2  113   3.087   1.372   3.462  0.2165 -0.1111  0.3415
    1TYR    SC3  114   3.058   1.314   3.724  0.2610  0.0681  0.3876
    2SER     BB  115   3.868   1.350   3.617  0.0455 -0.0026  0.1496
    2SER    SC1  116   3.937   1.097   3.677 -0.1438 -0.1533  0.2339
    3TYR     BB  117   4.085   1.566   3.790 -0.3196 -0.2991  0.0919
    3TYR    SC1  118   4.315   1.718   3.610 -0.0142  0.1669 -0.0366
    3TYR    SC2  119   4.428   1.946   3.517 -0.2415  0.2140 -0.2037
    3TYR    SC3  120   4.417   1.726   3.359 -0.3682  0.2060 -0.1858
    1TYR     BB  121   4.207   4.013   3.496  0.4234  0.1508 -0.1254
    1TYR    SC1  122   4.134   4.138   3.795  0.0183  0.1347  0.0879
    1TYR    SC2  123   4.063   4.016   4.026  0.1230 -0.1145 -0.0074
    1TYR    SC3  124   4.173   4.263   4.031  0.0619 -0.0899  0.2028
    2SER     BB  125   4.237   3.705   3.520 -0.1325 -0.3286  0.2302
    2SER    SC1  126   4.179   3.533   3.348 -0.2221 -0.1843  0.0097
    3TYR     BB  127   4.293   3.571   3.844  0.1076  0.0500  0.0716
    3TYR    SC1  128   4.264   3.272   3.731  0.4801  0.3646 -0.3922
    3TYR    SC2  129   4.051   3.153   3.616  0.2802  0.1753  0.1374
    3TYR    SC3  130   4.263   3.004   3.693  0.5229  0.3341 -0.1958
    1TYR     BB  131   6.981   5.518   3.484 -0.2927 -0.0283 -0.1534
    1TYR    SC1  132   7.015   5.741   3.271 -0.1782 -0.1736  0.1920
    1TYR    SC2  133   7.038   5.782   3.004 -0.2136  0.1983  0.2404
    1TYR    SC3  134   7.198   5.916   3.177 -0.1831 -0.0479  0.4097
    2SER     BB  135   7.021   5.409   3.771 -0.0104 -0.1240 -0.1865
    2SER    SC1  136   7.026   5.180   3.854  0.0396  0.1549  0.2083
    3TYR     BB  137   7.166   5.613   4.046 -0.0190  0.1333  0.0314
    3TYR    SC1  138   7.407   5.413   4.082 -0.0947  0.1040  0.2260
    3TYR    SC2  139   7.566   5.195   4.078 -0.0396  0.1429  0.2726
    3TYR    SC3  140   7.674   5.440   4.105 -0.0693  0.2067 -0.1076
    1TYR     BB  141   3.996   2.262   3.435  0.1373 -0.3824 -0.2175
    1TYR    SC1  142   4.235   2.259   3.269  0.1331 -0.1932 -0.0830
    1TYR    SC2  143   4.319   2.066   3.098 -0.1311 -0.1944 -0.2154
    1TYR    SC3  144   4.476   2.278   3.148  0.0582 -0.3217 -0.2607
    2SER     BB  145   3.744   2.214   3.239  0.3548  0.6007 -0.0238
    2SER    SC1  146   3.510   2.220   3.323  0.2193 -0.1585  0.0988
    3TYR     BB  147   3.843   2.105   2.960 -0.0229  0.0770  0.3014
    3TYR    SC1  148   3.593   1.969   2.821 -0.0915 -0.2386  0.1896
    3TYR    SC2  149   3.362   1.828   2.814 -0.2445  0.0120 -0.1005
    3TYR    SC3  150   3.357   2.096   2.850  0.0015  0.0261 -0.1417
    1TYR     BB  151   6.777   4.553   2.129 -0.2579  0.2654  0.0573
    1TYR    SC1  152   7.065   4.612   2.173 -0.1392  0.3257 -0.0686
    1TYR    SC2  153   7.223   4.617   2.392 -0.2520  0.0392  0.0250
    1TYR    SC3  154   7.324   4.681   2.150 -0.0153 -0.0518  0.0973
    2SER     BB  155   6.713   4.219   2.031  0.1553  0.0296  0.0895
    2SER    SC1  156   6.874   4.151   1.871 -0.0817  0.0433  0.1095
    3TYR     BB  157   6.364   4.122   2.179 -0.0323  0.1082 -0.1140
    3TYR    SC1  158   6.356   3.827   2.117 -0.1312  0.3560 -0.1715
    3TYR    SC2  159   6.286   3.567   2.136  0.3718  0.2272  0.1802
    3TYR    SC3  160   6.431   3.653   1.925  0.0678  0.2696 -0.0197
    1TYR     BB  161   1.696   3.494   4.208 -0.3367 -0.0931 -0.0200
    1TYR    SC1  162   1.440   3.533   4.302 -0.2493  0.0748 -0.0252
    1TYR    SC2  163   1.199   3.443   4.221 -0.3686  0.1425  0.2379
    1TYR    SC3  164   1.244   3.488   4.483 -0.0283  0.0152  0.2064
    2SER     BB  165   1.852   3.823   4.305  0.2583 -0.0528 -0.0846
    2SER    SC1  166   1.891   3.794   4.571  0.0272 -0.0706 -0.0715
    3TYR     BB  167   1.863   4.055   4.143 -0.1629  0.1309 -0.3776
    3TYR    SC1  168   2.141   4.200   4.241 -0.0024 -0.0769 -0.0972
    3TYR    SC2  169   2.402   4.182   4.178  0.0006 -0.3837 -0.0223
    3TYR    SC3  170   2.309   4.399   4.310  0.1343 -0.0857 -0.3919
    1TYR     BB  171   0.447   4.042   4.203 -0.0165 -0.0175  0.1191
    1TYR    SC1  172   0.186   3.943   4.186 -0.0499 -0.2595 -0.0391
    1TYR    SC2  173  -0.040   4.083   4.140  0.0479 -0.1036 -0.0545
    1TYR    SC3  174  -0.033   3.817   4.093 -0.0998 -0.0906 -0.1548
    2SER     BB  175   0.795   3.838   4.385  0.2963  0.1222  0.2865
    2SER    SC1  176   0.922   3.843   4.164  0.1528  0.3650 -0.0525
    3TYR     BB  177   0.842   3.778   4.700  0.0508 -0.4085  0.1157
    3TYR    SC1  178   1.061   3.991   4.792  0.1130  0.0173  0.0918
    3TYR    SC2  179   1.139   4.250   4.785  0.0466  0.0364  0.0478
    3TYR    SC3  180   1.182   4.102   5.006 -0.0933  0.1419  0.1488
    1TYR     BB  181   6.566   5.580   3.028  0.4918 -0.0948  0.2744
    1TYR    SC1  182   6.405   5.506   2.767 -0.2292 -0.2531 -0.0147
    1TYR    SC2  183   6.348   5.482   2.504 -0.0620 -0.2234 -0.0552
    1TYR    SC3  184   6.149   5.509   2.684 -0.1743 -0.1403 -0.1890
    2SER     BB  185   6.499   5.765   3.280  0.1165  0.4156  0.0177
    2SER    SC1  186   6.392   5.963   3.333 -0.2621 -0.1983 -0.2089
    3TYR     BB  187   6.477   5.588   3.641  0.0179  0.0408 -0.1951
    3TYR    SC1  188   6.662   5.770   3.757 -0.0165  0.1502 -0.1075
    3TYR    SC2  189   6.754   5.937   3.949 -0.1167  0.1083 -0.0217
    3TYR    SC3  190   6.805   5.989   3.689 -0.1280  0.2608  0.0055
    1TYR     BB  191   4.908   1.983   3.443 -0.0149 -0.4471  0.0451
    1TYR    SC1  192   5.060   1.870   3.242  0.0095  0.3053 -0.1831
    1TYR    SC2  193   5.197   1.728   3.060 -0.1303 -0.1960  0.0788
    1TYR    SC3  194   5.295   1.962   3.150  0.3194 -0.3115 -0.0757
    2SER     BB  195   5.155   2.100   3.681 -0.0292  0.3675 -0.0146
    2SER    SC1  196   5.303   2.295   3.621 -0.0475 -0.1001 -0.4685
    3TYR     BB  197   5.141   1.873   3.892 -0.0612 -0.1560  0.1677
    3TYR    SC1  198   5.323   1.645   3.985 -0.0370 -0.0009 -0.2178
    3TYR    SC2  199   5.382   1.434   4.142  0.0505  0.0544 -0.1762
    3TYR    SC3  200   5.547   1.502   3.941  0.0331  0.0962 -0.1764
    1TYR     BB  201   5.104   3.450   3.329 -0.2553 -0.2862  0.0608
    1TYR    SC1  202   5.064   3.692   3.123 -0.1462 -0.1465  0.2076
    1TYR    SC2  203   5.075   3.937   3.012  0.0341 -0.0195  0.4890
    1TYR    SC3  204   5.225   3.738   2.911 -0.0317  0.0121  0.3243
    2SER     BB  205   4.837   3.412   3.530  0.0721 -0.1872  0.0386
    2SER    SC1  206   4.770   3.468   3.756  0.0771 -0.1909  0.0802
    3TYR     BB  207   4.576   3.267   3.346  0.3879 -0.1897  0.0077
    3TYR    SC1  208   4.631   3.507   3.068 -0.0595  0.1596 -0.0897
    3TYR    SC2  209   4.665   3.620   2.825 -0.1433 -0.3652 -0.3661
    3TYR    SC3  210   4.462   3.699   2.984  0.1436  0.2657 -0.2724
    1TYR     BB  211   3.805   2.465   2.603  0.2142  0.0504  0.0050
    1TYR    SC1  212   3.557   2.524   2.797  0.1252  0.0850 -0.1767
    1TYR    SC2  213   3.304   2.566   2.880  0.1129 -0.1496 -0.0860
    1TYR    SC3  214   3.510   2.610   3.049  0.1079 -0.3104 -0.0356
    2SER     BB  215   4.105   2.521   2.758  0.1850 -0.1270  0.1551
    2SER    SC1  216   4.056   2.637   3.005  0.1178 -0.0748  0.1599
    3TYR     BB  217   4.289   2.257   2.689  0.1926 -0.3231 -0.2927
    3TYR    SC1  218   4.532   2.240   2.569 -0.2621  0.1525  0.4359
    3TYR    SC2  219   4.796   2.291   2.548 -0.2418 -0.0051  0.2901
    3TYR    SC3  220   4.625   2.387   2.362 -0.2569 -0.1030  0.2529
    1TYR     BB  221   6.788   4.593   2.608  0.2293  0.1560 -0.0837
    1TYR    SC1  222   6.626   4.347   2.630  0.1534 -0.1134  0.1291
    1TYR    SC2  223   6.620   4.078   2.612  0.0499 -0.1149  0.1784
    1TYR    SC3  224   6.393   4.214   2.663  0.0890 -0.0128  0.0842
    2SER     BB  225   6.981   4.704   2.866  0.1267 -0.0286 -0.1589
    2SER    SC1  226   7.220   4.726   2.859 -0.0767  0.0132  0.0557
    3TYR     BB  227   6.780   4.713   3.094  0.1178  0.0792  0.0298
    3TYR    SC1  228   6.647   4.436   3.175 -0.4587  0.1070 -0.1615
    3TYR    SC2  229   6.540   4.199   3.105  0.1313 -0.2456  0.0534
    3TYR    SC3  230   6.664   4.227   3.344  0.1766  0.2495 -0.0167
    1TYR     BB  231   3.898   3.775   4.471  0.0009  0.1567  0.1625
    1TYR    SC1  232   3.725   3.988   4.324  0.0529  0.0366 -0.1968
    1TYR    SC2  233   3.527   4.074   4.164 -0.0153  0.3578  0.0492
    1TYR    SC3  234   3.742   4.232   4.207  0.3591 -0.0262 -0.3004
    2SER     BB  235   3.899   3.527   4.212  0.2189  0.1544 -0.2242
    2SER    SC1  236   3.789   3.611   4.003 -0.1579 -0.3166 -0.4701
    3TYR     BB  237   4.152   3.358   4.258  0.2596 -0.1769 -0.3414
    3TYR    SC1  238   4.243   3.344   4.535 -0.1643 -0.2897  0.0771
    3TYR    SC2  239   4.263   3.489   4.761 -0.3491 -0.2511  0.0688
    3TYR    SC3  240   4.446   3.298   4.710 -0.1038 -0.0265  0.0806
    1TYR     BB  241   5.292   3.422   4.435  0.0481  0.2582  0.0565
    1TYR    SC1  242   5.530   3.220   4.372 -0.2104 -0.0725 -0.2398
    1TYR    SC2  243   5.764   3.111   4.452 -0.1215  0.1990 -0.1160
    1TYR    SC3  244   5.670   3.059   4.205  0.0190  0.0087 -0.1335
    2SER     BB  245   5.273   3.456   4.724 -0.1421 -0.2210  0.0029
    2SER    SC1  246   5.099   3.555   4.835 -0.0435  0.2489 -0.0247
    3TYR     BB  247   5.453   3.315   5.006 -0.2094  0.0319 -0.2530
    3TYR    SC1  248   5.729   3.326   4.905  0.1588  0.1203  0.0976
    3TYR    SC2  249   5.916   3.137   4.861  0.0680  0.1450 -0.5044
    3TYR    SC3  250   5.987   3.375   4.969  0.1928 -0.1833  0.2070
    1TYR     BB  251   3.845   3.030   4.089  0.0538 -0.1659  0.2645
    1TYR    SC1  252   3.619   3.162   3.915  0.0105  0.0569  0.0420
    1TYR    SC2  253   3.367   3.238   3.853  0.0781  0.0282 -0.2884
    1TYR    SC3  254   3.512   3.092   3.677  0.0813 -0.5720  0.1735
    2SER     BB  255   3.647   2.740   4.132 -0.1233 -0.0103  0.0041
    2SER    SC1  256   3.435   2.691   3.996  0.2565 -0.2518  0.0418
    3TYR     BB  257   3.913   2.538   4.014 -0.1768  0.2913  0.1032
    3TYR    SC1  258   3.890   2.648   3.708  0.0557 -0.1816 -0.0629
    3TYR    SC2  259   3.964   2.740   3.465 -0.0966  0.1890  0.0225
    3TYR    SC3  260   3.705   2.675   3.513  0.0085 -0.3249 -0.0391
    1TYR     BB  261   2.336   4.732   3.250  0.1143  0.1283 -0.3753
    1TYR    SC1  262   2.176   4.720   2.975  0.1014  0.1229  0.1261
    1TYR    SC2  263   2.174   4.696   2.706 -0.0697 -0.1897  0.1493
    1TYR    SC3  264   2.022   4.532   2.858  0.3772 -0.3398  0.4603
    2SER     BB  265   2.701   4.746   3.275  0.0582 -0.2221 -0.2471
    2SER    SC1  266   2.758   4.962   3.407  0.1250 -0.2486 -0.0134
    3TYR     BB  267   2.943   4.489   3.317 -0.1880  0.1199  0.1337
    3TYR    SC1  268   2.854   4.209   3.450  0.1525  0.1860  0.1525
    3TYR    SC2  269   2.892   3.942   3.460 -0.3243  0.0793 -0.3227
    3TYR    SC3  270   2.775   4.069   3.667 -0.0666 -0.0644 -0.0793
    1TYR     BB  271   5.667   4.666   3.429 -0.0183 -0.1895 -0.0278
    1TYR    SC1  272   5.618   4.733   3.679  0.0719 -0.3757 -0.0719
    1TYR    SC2  273   5.544   4.870   3.901  0.0607 -0.1174 -0.2304
    1TYR    SC3  274   5.676   4.634   3.925 -0.2465 -0.2692  0.0510
    2SER     BB  275   5.447   4.403   3.237 -0.2997  0.2923  0.1482
    2SER    SC1  276   5.576   4.236   3.120 -0.2617  0.0206  0.4380
    3TYR     BB  277   5.159   4.469   3.020 -0.1016  0.0539  0.0984
    3TYR    SC1  278   4.894   4.580   3.006 -0.1601 -0.0600  0.0439
    3TYR    SC2  279   4.713   4.757   3.106 -0.1078  0.1058 -0.1507
    3TYR    SC3  280   4.651   4.607   2.890 -0.0939 -0.0012 -0.0813
    1TYR     BB  281   0.242   5.087   3.408  0.2957 -0.0950 -0.1067
    1TYR    SC1  282   0.179   5.234   3.176  0.3222 -0.2439 -0.0700
    1TYR    SC2  283   0.210   5.482   3.075 -0.0704 -0.1394  0.0462
    1TYR    SC3  284   0.059   5.301   2.943 -0.0466 -0.2135  0.1194
    2SER     BB  285   0.411   4.814   3.291 -0.3015 -0.0410 -0.2074
    2SER    SC1  286   0.422   4.641   3.482 -0.3534 -0.3082 -0.0281
    3TYR     BB  287   0.509   4.801   2.995 -0.1124  0.1047 -0.3589
    3TYR    SC1  288   0.497   5.099   2.909 -0.3432 -0.0663 -0.1434
    3TYR    SC2  289   0.393   5.213   2.688 -0.0580  0.0183 -0.2390
    3TYR    SC3  290   0.602   5.329   2.815 -0.1242 -0.1069 -0.0081
    1TYR     BB  291   3.960   4.644   4.201 -0.0996  0.1334 -0.1639
    1TYR    SC1  292   4.223   4.704   4.161  0.0029  0.0889  0.2321
    1TYR    SC2  293   4.447   4.832   4.239  0.1608 -0.1519  0.1851
    1TYR    SC3  294   4.461   4.638   4.051 -0.0865 -0.1750  0.1880
    2SER     BB  295   3.846   4.739   4.489  0.1937  0.2609  0.1197
    2SER    SC1  296   3.648   4.653   4.560  0.3594 -0.0174 -0.0888
    3TYR     BB  297   4.049   4.957   4.672  0.0000 -0.2598  0.2437
    3TYR    SC1  298   3.879   4.984   4.896 -0.0777  0.1687 -0.0668
    3TYR    SC2  299   3.753   5.051   5.125 -0.2000 -0.1220 -0.0436
    3TYR    SC3  300   3.787   4.791   5.061 -0.0484 -0.0451 -0.2926
    1TYR     BB  301   5.475   3.657   5.712  0.1295 -0.0385 -0.1184
    1TYR    SC1  302   5.718   3.889   5.738 -0.1499  0.2456  0.1437
    1TYR    SC2  303   5.887   4.056   5.612  0.4157 -0.1758  0.2989
    1TYR    SC3  304   5.804   4.113   5.863  0.0448  0.1946  0.1050
    2SER     BB  305   5.356   3.410   5.547  0.0709  0.0711 -0.0370
    2SER    SC1  306   5.322   3.173   5.605 -0.0214  0.0323 -0.1214
    3TYR     BB  307   5.084   3.521   5.338 -0.1595  0.1438  0.1951
    3TYR    SC1  308   5.075   3.837   5.252  0.1046  0.0266 -0.0288
    3TYR    SC2  309   4.898   4.036   5.299  0.0801 -0.0113  0.0401
    3TYR    SC3  310   5.014   4.012   5.056 -0.1533 -0.1004 -0.0655
    1TYR     BB  311   1.565   3.714   3.259  0.2260  0.1453  0.3052
    1TYR    SC1  312   1.301   3.900   3.226  0.1563  0.0219  0.1397
    1TYR    SC2  313   1.163   4.092   3.099  0.3276 -0.0795 -0.2165
    1TYR    SC3  314   1.038   3.930   3.276  0.0749  0.0545 -0.2646
    2SER     BB  315   1.654   3.755   3.594  0.0904  0.1599  0.0279
    2SER    SC1  316   1.636   3.549   3.718 -0.1975 -0.1371 -0.0811
    3TYR     BB  317   1.829   3.993   3.587  0.2189 -0.0396 -0.0850
    3TYR    SC1  318   2.113   3.938   3.671 -0.0271  0.0431  0.1202
    3TYR    SC2  319   2.349   4.049   3.736 -0.0773 -0.0061  0.4014
    3TYR    SC3  320   2.341   3.833   3.574  0.0762 -0.0397  0.4367
    1TYR     BB  321   3.699   4.490   3.554  0.6322  0.1551  0.0123
    1TYR    SC1  322   3.649   4.455   3.254 -0.2431 -0.2191 -0.1157
    1TYR    SC2  323   3.642   4.477   2.985 -0.1172 -0.2618 -0.1235
    1TYR    SC3  324   3.418   4.416   3.122 -0.2161 -0.0892 -0.2045
    2SER     BB  325   3.554   4.226   3.676  0.0311  0.1223  0.0858
    2SER    SC1  326   3.299   4.243   3.647  0.0986  0.0632  0.0453
    3TYR     BB  327   3.707   3.941   3.654 -0.0477  0.2302  0.1594
    3TYR    SC1  328   3.724   3.708   3.472  0.2775  0.0466  0.0886
    3TYR    SC2  329   3.721   3.443   3.525 -0.0941  0.0477  0.1086
    3TYR    SC3  330   3.618   3.536   3.293 -0.1773  0.1903  0.2001
    1TYR     BB  331   0.426   5.340   4.845  0.1608  0.1518  0.1298
    1TYR    SC1  332   0.483   5.021   4.831 -0.2338  0.0638 -0.3273
    1TYR    SC2  333   0.378   4.776   4.790 -0.2533  0.0340 -0.1100
    1TYR    SC3  334   0.572   4.812   4.976 -0.3919  0.2170  0.0016
    2SER     BB  335   0.464   5.400   4.502 -0.0548 -0.0698  0.0559
    2SER    SC1  336   0.520   5.605   4.455  0.0853  0.0595 -0.1822
    3TYR     BB  337   0.395   5.136   4.369 -0.0046 -0.0491  0.1776
    3TYR    SC1  338   0.435   5.107   4.069 -0.3097 -0.0713 -0.0003
    3TYR    SC2  339   0.391   4.935   3.866 -0.2485  0.0444 -0.1131
    3TYR    SC3  340   0.533   5.161   3.824 -0.2340  0.0692  0.0593
    1TYR     BB  341   3.281   3.710   3.684  0.1775  0.2712  0.0533
    1TYR    SC1  342   3.327   3.687   3.962 -0.0280  0.1458 -0.2085
    1TYR    SC2  343   3.181   3.792   4.165  0.1613  0.1560 -0.0765
    1TYR    SC3  344   3.360   3.596   4.215  0.4647  0.3977 -0.1710
    2SER     BB  345   3.111   3.494   3.534 -0.0259  0.1864  0.1281
    2SER    SC1  346   3.193   3.322   3.388  0.2133  0.1775  0.3964
    3TYR     BB  347   2.759   3.493   3.606 -0.0862 -0.1053 -0.0690
    3TYR    SC1  348   2.709   3.210   3.471  0.2009 -0.1283  0.3982
    3TYR    SC2  349   2.515   3.033   3.536 -0.2663  0.2021  0.0011
    3TYR    SC3  350   2.699   2.970   3.348 -0.0369 -0.0730  0.3024
    1TYR     BB  351   4.775   5.269   4.925 -0.0604 -0.2328  0.1363
    1TYR    SC1  352   5.055   5.423   4.806 -0.0021  0.1010 -0.0976
    1TYR    SC2  353   5.202   5.617   4.922  0.2405 -0.1838  0.0931
    1TYR    SC3  354   5.307   5.471   4.721  0.0919 -0.1763  0.0080
    2SER     BB  355   4.560   5.436   4.687  0.0602  0.0433 -0.0205
    2SER    SC1  356   4.453   5.250   4.575  0.0002  0.0138  0.2968
    3TYR     BB  357   4.538   5.804   4.613  0.1697  0.0486 -0.1459
    3TYR    SC1  358   4.399   5.783   4.363  0.4842 -0.0167  0.0406
    3TYR    SC2  359   4.317   5.794   4.106 -0.4626 -0.0683  0.2927
    3TYR    SC3  360   4.298   5.563   4.242 -0.0073 -0.0320  0.4383
    1TYR     BB  361   3.531   0.878   2.965  0.4038  0.1798 -0.0200
    1TYR    SC1  362   3.616   0.922   2.685 -0.1775 -0.6220  0.1996
    1TYR    SC2  363   3.736   0.866   2.449 -0.2438 -0.0038 -0.0040
    1TYR    SC3  364   3.812   1.083   2.592 -0.2931 -0.2941  0.4927
    2SER     BB  365   3.799   0.945   3.208 -0.1112 -0.0309  0.0120
    2SER    SC1  366   3.814   0.728   3.337 -0.0423  0.4901  0.0473
    3TYR     BB  367   3.989   1.145   3.116 -0.1448 -0.5905  0.0193
    3TYR    SC1  368   4.200   1.046   2.923  0.0533  0.3858 -0.0757
    3TYR    SC2  369   4.456   0.996   2.849 -0.0199  0.1772 -0.1978
    3TYR    SC3  370   4.269   1.055   2.662 -0.1092  0.1048 -0.1335
    1TYR     BB  371   2.592   4.493   2.887  0.3670  0.2862  0.0353
    1TYR    SC1  372   2.815   4.611   2.774  0.1664 -0.3001  0.0122
    1TYR    SC2  373   3.074   4.548   2.825  0.1802 -0.1591  0.1230
    1TYR    SC3  374   3.015   4.759   2.667  0.1329 -0.2092  0.0734
    2SER     BB  375   2.406   4.242   3.037 -0.0297 -0.0802  0.1820
    2SER    SC1  376   2.366   4.247   3.263 -0.0927  0.0595 -0.2380
    3TYR     BB  377   2.403   4.083   2.710 -0.0986 -0.2008  0.1213
    3TYR    SC1  378   2.154   4.090   2.626 -0.0694 -0.0206  0.0667
    3TYR    SC2  379   1.920   3.976   2.553  0.1201 -0.3339 -0.0739
    3TYR    SC3  380   2.000   4.205   2.435 -0.1309 -0.2026  0.0034
    1TYR     BB  381   5.102   3.837   3.818  0.0896 -0.1412 -0.0608
    1TYR    SC1  382   5.257   3.552   3.851  0.0059  0.0084  0.2371
    1TYR    SC2  383   5.394   3.336   3.940  0.3112  0.0160 -0.1788
    1TYR    SC3  384   5.478   3.469   3.720 -0.0772  0.3475 -0.1424
    2SER     BB  385   4.948   3.948   3.554  0.1550 -0.2330 -0.1626
    2SER    SC1  386   5.081   4.162   3.498  0.3261  0.0173 -0.0256
    3TYR     BB  387   4.689   3.877   3.421  0.0530  0.2278 -0.0953
    3TYR    SC1  388   4.673   4.033   3.183 -0.3633 -0.0064 -0.0156
    3TYR    SC2  389   4.660   4.126   2.930 -0.3265 -0.1026 -0.0532
    3TYR    SC3  390   4.459   4.177   3.102 -0.5427 -0.3690 -0.2176
    1TYR     BB  391   2.020   3.960   3.135  0.0483  0.1199  0.0193
    1TYR    SC1  392   1.805   4.099   3.012  0.0682 -0.0447  0.1163
    1TYR    SC2  393   1.567   4.041   2.897  0.1210  0.0041 -0.0206
    1TYR    SC3  394   1.656   4.296   2.901  0.1692 -0.0135  0.0347
    2SER     BB  395   2.011   3.642   2.950 -0.2325  0.0568  0.3344
    2SER    SC1  396   2.210   3.614   2.754 -0.1030 -0.1450 -0.3065
    3TYR     BB  397   1.749   3.414   2.924 -0.1949 -0.0013  0.0203
    3TYR    SC1  398   1.690   3.224   3.092  0.0872 -0.0565  0.2500
    3TYR    SC2  399   1.589   2.983   3.162 -0.0867 -0.1250 -0.1976
    3TYR    SC3  400   1.737   3.123   3.338 -0.0526 -0.5170  0.1021
    1TYR     BB  401   3.732   4.934   3.773  0.0269 -0.0768  0.4615
    1TYR    SC1  402   3.999   4.856   3.762 -0.0459 -0.0920 -0.1983
    1TYR    SC2  403   4.116   4.617   3.715 -0.0463 -0.0669 -0.3328
    1TYR    SC3  404   4.244   4.846   3.649  0.0342 -0.0206 -0.0358
    2SER     BB  405   3.577   4.846   3.993  0.0737  0.1736  0.2361
    2SER    SC1  406   3.485   4.602   4.012  0.2143  0.1221  0.2443
    3TYR     BB  407   3.534   5.063   4.228 -0.1722 -0.1304  0.1673
    3TYR    SC1  408   3.465   5.114   4.489  0.0447  0.1249  0.0897
    3TYR    SC2  409   3.499   5.134   4.757  0.1566  0.1547  0.0736
    3TYR    SC3  410   3.251   5.151   4.650  0.1067  0.0960  0.1795
    1TYR     BB  411   4.564   4.511   5.446 -0.0140  0.1230  0.1348
    1TYR    SC1  412   4.422   4.227   5.444  0.0214  0.0448  0.0462
    1TYR    SC2  413   4.478   4.045   5.636  0.2165 -0.1105 -0.1506
    1TYR    SC3  414   4.409   3.962   5.389  0.5336  0.0754 -0.3101
    2SER     BB  415   4.352   4.719   5.355 -0.3469 -0.0394 -0.3116
    2SER    SC1  416   4.219   4.882   5.514 -0.0713 -0.2505  0.2548
    3TYR     BB  417   4.371   4.959   5.054  0.0147  0.4526  0.1775
    3TYR    SC1  418   4.214   5.204   5.075 -0.0716  0.1723 -0.1474
    3TYR    SC2  419   4.042   5.399   5.007 -0.0195  0.1857 -0.2451
    3TYR    SC3  420   4.285   5.463   5.106 -0.1151  0.1660  0.0117
    1TYR     BB  421   3.517   5.279   3.442 -0.1273  0.2375 -0.2629
    1TYR    SC1  422   3.514   5.458   3.671  0.2147 -0.0372  0.0841
    1TYR    SC2  423   3.545   5.455   3.939  0.3012  0.2232  0.0797
    1TYR    SC3  424   3.587   5.683   3.801 -0.0976  0.1888 -0.1133
    2SER     BB  425   3.880   5.220   3.372 -0.0476  0.2431 -0.1720
    2SER    SC1  426   3.999   5.374   3.496 -0.1825  0.0833  0.0679
    3TYR     BB  427   3.877   4.884   3.265 -0.1201 -0.1934 -0.3274
    3TYR    SC1  428   3.887   4.901   2.966  0.1689 -0.2233 -0.0627
    3TYR    SC2  429   3.849   4.810   2.715 -0.2089  0.0018 -0.0985
    3TYR    SC3  430   3.854   5.076   2.763 -0.4067 -0.0365  0.1634
    1TYR     BB  431   1.068   4.406   3.764  0.2333  0.1942 -0.1467
    1TYR    SC1  432   1.184   4.378   3.520  0.1679 -0.0148 -0.0918
    1TYR    SC2  433   1.316   4.497   3.317 -0.2205 -0.0992 -0.4129
    1TYR    SC3  434   1.427   4.287   3.446  0.1212  0.0857 -0.3907
    2SER     BB  435   0.754   4.278   3.802  0.0414  0.2561  0.0740
    2SER    SC1  436   0.606   4.450   3.937 -0.0558  0.3038  0.2175
    3TYR     BB  437   0.769   3.979   3.688  0.0009 -0.3713  0.4297
    3TYR    SC1  438   0.590   3.793   3.788  0.2875  0.0224  0.1582
    3TYR    SC2  439   0.338   3.721   3.856  0.1804  0.0334 -0.1992
    3TYR    SC3  440   0.550   3.576   3.941  0.0279 -0.1846 -0.1853
    1TYR     BB  441   2.149   3.610   3.988  0.0707 -0.0074 -0.0450
    1TYR    SC1  442   2.048   3.314   3.862 -0.0347  0.2275  0.0884
    1TYR    SC2  443   1.855   3.126   3.883 -0.0859  0.2684 -0.0030
    1TYR    SC3  444   2.039   3.110   3.686  0.0675  0.1741  0.1445
    2SER     BB  445   2.389   3.696   4.144  0.0475  0.2901 -0.0157
    2SER    SC1  446   2.623   3.738   4.080  0.2805  0.0965  0.0002
    3TYR     BB  447   2.358   3.838   4.500  0.0552 -0.2439  0.2285
    3TYR    SC1  448   2.600   3.986   4.510 -0.1026  0.3449 -0.1734
    3TYR    SC2  449   2.864   3.930   4.524 -0.1416  0.2334  0.3410
    3TYR    SC3  450   2.774   4.172   4.600 -0.1692  0.3750 -0.1074
    1TYR     BB  451  -0.070   4.695   3.356 -0.0022  0.0705 -0.2598
    1TYR    SC1  452  -0.065   4.636   3.639 -0.1226 -0.2140 -0.1686
    1TYR    SC2  453  -0.151   4.488   3.847 -0.2847 -0.0089 -0.0864
    1TYR    SC3  454   0.106   4.568   3.836 -0.2828  0.0072  0.0533
    2SER     BB  455   0.009   4.481   3.146 -0.0182  0.0901  0.2965
    2SER    SC1  456   0.160   4.283   3.198 -0.1091 -0.0966  0.2660
    3TYR     BB  457   0.060   4.653   2.864  0.0599 -0.0834 -0.0598
    3TYR    SC1  458   0.233   4.429   2.670  0.0954 -0.2198  0.2638
    3TYR    SC2  459   0.416   4.312   2.510  0.0554 -0.0016  0.0503
    3TYR    SC3  460   0.459   4.328   2.776  0.2632 -0.1064  0.0249
    1TYR     BB  461   3.346   1.223   4.487 -0.0553 -0.1026 -0.0657
    1TYR    SC1  462   3.537   1.441   4.597 -0.1234  0.2393  0.1699
    1TYR    SC2  463   3.538   1.711   4.618  0.3140  0.2573  0.0325
    1TYR    SC3  464   3.717   1.563   4.754  0.0814  0.0279  0.1027
    2SER     BB  465   3.076   1.340   4.264  0.1094 -0.2489  0.3069
    2SER    SC1  466   2.893   1.208   4.178  0.0621  0.0433 -0.0474
    3TYR     BB  467   3.340   1.505   4.091  0.3297  0.0614 -0.1598
    3TYR    SC1  468   3.255   1.814   4.237  0.0544 -0.1424 -0.1960
    3TYR    SC2  469   3.192   1.962   4.454  0.0192 -0.4597  0.0191
    3TYR    SC3  470   3.116   2.043   4.208 -0.1648 -0.2226  0.1490
    1TYR     BB  471   2.563   4.549   4.969 -0.0323 -0.2156  0.0542
    1TYR    SC1  472   2.487   4.759   5.141 -0.2007 -0.3772 -0.1581
    1TYR    SC2  473   2.387   4.998   5.065 -0.0262 -0.2484  0.0063
    1TYR    SC3  474   2.535   4.979   5.289 -0.0002 -0.5053 -0.0291
    2SER     BB  475   2.762   4.808   4.696  0.0905 -0.3763  0.1811
    2SER    SC1  476   2.671   4.733   4.480 -0.0965  0.0447  0.0028
    3TYR     BB  477   2.843   5.068   4.912 -0.0956  0.0858 -0.2135
    3TYR    SC1  478   3.048   4.971   5.082  0.0704  0.1649  0.2014
    3TYR    SC2  479   3.300   5.055   5.133  0.0642  0.2197  0.1443
    3TYR    SC3  480   3.197   4.845   5.269  0.2561 -0.0118 -0.0572
    1TYR     BB  481   4.510   5.160   3.385  0.0686 -0.0897  0.0658
    1TYR    SC1  482   4.382   5.080   3.120 -0.1013 -0.1919 -0.0187
    1TYR    SC2  483   4.344   5.034   2.857  0.0311 -0.0652 -0.0611
    1TYR    SC3  484   4.265   5.268   2.966  0.0650 -0.0779 -0.0086
    2SER     BB  485   4.487   5.331   3.583  0.2075 -0.0308 -0.2466
    2SER    SC1  486   4.413   5.581   3.646 -0.0809  0.0853  0.0382
    3TYR     BB  487   4.534   5.203   3.955  0.0558 -0.1384 -0.1625
    3TYR    SC1  488   4.224   5.190   3.981  0.0266 -0.4056  0.0246
    3TYR    SC2  489   3.978   5.299   3.999  0.2386  0.0851  0.1528
    3TYR    SC3  490   4.061   5.125   4.187  0.0071 -0.0653  0.1228
    1TYR     BB  491   4.817   2.908   3.687  0.2694 -0.2978 -0.0948
    1TYR    SC1  492   5.083   2.872   3.638  0.0208  0.2034  0.2752
    1TYR    SC2  493   5.344   2.813   3.666  0.0161  0.0566  0.0427
    1TYR    SC3  494   5.267   3.068   3.624  0.1092  0.1174  0.2271
    2SER     BB  495   4.802   3.053   3.983 -0.0363  0.2419  0.0773
    2SER    SC1  496   4.580   3.125   4.035  0.1938  0.1448 -0.3536
    3TYR     BB  497   5.078   3.037   4.170  0.0828  0.0469  0.2836
    3TYR    SC1  498   5.239   2.830   4.172 -0.1210 -0.0427 -0.3576
    3TYR    SC2  499   5.426   2.679   4.048  0.1276  0.1331 -0.2092
    3TYR    SC3  500   5.386   2.651   4.313  0.0840  0.2345 -0.2047
    1TYR     BB  501   5.981   3.960   3.827  0.1326 -0.1701 -0.1391
    1TYR    SC1  502   5.759   3.923   4.015 -0.1593  0.0016 -0.0660
    1TYR    SC2  503   5.527   3.805   4.083 -0.0292 -0.3136 -0.1475
    1TYR    SC3  504   5.672   3.934   4.270 -0.2652 -0.1124 -0.0959
    2SER     BB  505   6.151   3.618   3.699 -0.1652  0.1378 -0.1810
    2SER    SC1  506   6.384   3.666   3.811 -0.0690 -0.2636 -0.0545
    3TYR     BB  507   5.951   3.496   3.580 -0.2332 -0.0760 -0.1902
    3TYR    SC1  508   6.055   3.378   3.316 -0.4178 -0.4806 -0.2129
    3TYR    SC2  509   6.206   3.207   3.172 -0.2512 -0.3839 -0.1551
    3TYR    SC3  510   6.133   3.443   3.066 -0.0935 -0.2945 -0.0712
    1TYR     BB  511   1.232   3.376   3.360 -0.1605 -0.1408  0.2896
    1TYR    SC1  512   1.187   3.501   3.087  0.0108  0.0129 -0.0124
    1TYR    SC2  513   1.286   3.609   2.860 -0.0743 -0.1377 -0.1238
    1TYR    SC3  514   1.024   3.632   2.916 -0.0429 -0.0472 -0.0072
    2SER     BB  515   0.993   3.515   3.531  0.2113 -0.0047  0.1317
    2SER    SC1  516   1.022   3.526   3.782 -0.2848  0.1056  0.0578
    3TYR     BB  517   0.753   3.548   3.353  0.4606  0.1470  0.0586
    3TYR    SC1  518   0.527   3.393   3.456  0.4302 -0.2592 -0.1166
    3TYR    SC2  519   0.284   3.345   3.564  0.2584 -0.0330 -0.3836
    3TYR    SC3  520   0.486   3.171   3.605  0.0392 -0.2553 -0.2024
    1TYR     BB  521   2.719   2.651   4.788  0.2864  0.0111  0.2990
    1TYR    SC1  522   2.449   2.664   4.653 -0.1232 -0.0304 -0.0054
    1TYR    SC2  523   2.273   2.538   4.491 -0.1719  0.0202  0.0070
    1TYR    SC3  524   2.263   2.806   4.519 -0.0679  0.0282 -0.0210
    2SER     BB  525   2.858   2.943   4.597 -0.0065  0.0609 -0.2952
    2SER    SC1  526   2.987   3.045   4.742 -0.0674  0.2935 -0.1681
    3TYR     BB  527   2.793   2.917   4.318 -0.0819  0.3730  0.0918
    3TYR    SC1  528   2.526   3.019   4.184  0.2801 -0.1819  0.1899
    3TYR    SC2  529   2.282   2.998   4.070  0.1298  0.1927  0.4193
    3TYR    SC3  530   2.461   3.177   3.974  0.3857 -0.1844  0.1543
    1TYR     BB  531   4.847   2.956   3.163  0.1743 -0.1522 -0.4144
    1TYR    SC1  532   5.125   2.924   3.147  0.0150  0.0879  0.2553
    1TYR    SC2  533   5.375   2.956   3.055 -0.0628  0.3521  0.1249
    1TYR    SC3  534   5.308   2.731   3.188  0.1925  0.1990  0.0025
    2SER     BB  535   4.592   2.810   3.122  0.0444  0.1213 -0.0510
    2SER    SC1  536   4.461   2.712   3.348 -0.0478  0.1200 -0.2234
    3TYR     BB  537   4.609   2.630   2.827  0.1850  0.1226 -0.0225
    3TYR    SC1  538   4.509   2.784   2.602  0.0258 -0.0849  0.1796
    3TYR    SC2  539   4.297   2.906   2.486 -0.0525 -0.4270 -0.0576
    3TYR    SC3  540   4.538   2.905   2.362  0.1022 -0.0377  0.2121
    1TYR     BB  541   1.408   5.017   4.129 -0.1096  0.0068 -0.1485
    1TYR    SC1  542   1.397   5.290   4.065 -0.4405 -0.2604 -0.2280
    1TYR    SC2  543   1.556   5.502   4.116 -0.5441 -0.2731  0.1960
    1TYR    SC3  544   1.306   5.540   4.017 -0.3166 -0.2511 -0.4313
    2SER     BB  545   1.415   4.738   3.896 -0.3829 -0.0257 -0.1278
    2SER    SC1  546   1.420   4.821   3.658 -0.1823  0.0712  0.2409
    3TYR     BB  547   1.506   4.419   3.927 -0.1603 -0.0328  0.0280
    3TYR    SC1  548   1.444   4.130   3.889  0.0317 -0.0247 -0.3339
    3TYR    SC2  549   1.245   3.967   3.806 -0.0410 -0.0633 -0.0938
    3TYR    SC3  550   1.397   3.897   4.019  0.1942 -0.0062 -0.2375
    1TYR     BB  551   3.653   3.364   4.588 -0.0007  0.3194 -0.0341
    1TYR    SC1  552   3.513   3.291   4.864 -0.0267 -0.0236 -0.0551
    1TYR    SC2  553   3.371   3.387   5.074  0.0571  0.1807 -0.0886
    1TYR    SC3  554   3.388   3.120   5.031 -0.0467  0.1417  0.1027
    2SER     BB  555   3.419   3.080   4.431 -0.1023  0.3377 -0.0155
    2SER    SC1  556   3.254   3.096   4.285  0.0806 -0.2435  0.0243
    3TYR     BB  557   3.450   2.764   4.599  0.2543 -0.0862  0.2579
    3TYR    SC1  558   3.215   2.608   4.508 -0.2656  0.5406 -0.4679
    3TYR    SC2  559   3.071   2.504   4.306 -0.2355 -0.1128 -0.1833
    3TYR    SC3  560   3.063   2.389   4.550  0.2489  0.2403  0.0174
    1TYR     BB  561   4.619   4.303   4.336  0.2497  0.1302  0.0086
    1TYR    SC1  562   4.898   4.332   4.497  0.0288  0.0004  0.0557
    1TYR    SC2  563   4.995   4.339   4.749  0.3224  0.2795 -0.0571
    1TYR    SC3  564   5.087   4.512   4.563  0.0136  0.1688 -0.3263
    2SER     BB  565   4.577   4.016   4.187 -0.2909 -0.0528 -0.0317
    2SER    SC1  566   4.615   3.949   3.939  0.0585  0.3771  0.3021
    3TYR     BB  567   4.369   3.785   4.325  0.1554  0.1589  0.2594
    3TYR    SC1  568   4.597   3.539   4.339 -0.1402 -0.0919 -0.2862
    3TYR    SC2  569   4.814   3.403   4.423 -0.1877  0.0490  0.0905
    3TYR    SC3  570   4.838   3.586   4.226 -0.0052 -0.0672  0.0013
    1TYR     BB  571   3.668   1.104   4.116  0.1142  0.0545 -0.2858
    1TYR    SC1  572   3.818   1.369   4.191 -0.0224  0.1294  0.0528
    1TYR    SC2  573   4.029   1.493   4.306 -0.0785 -0.1815  0.5239
    1TYR    SC3  574   3.819   1.638   4.219  0.3502  0.1476 -0.0577
    2SER     BB  575   3.436   0.992   3.948  0.2364  0.1234  0.0623
    2SER    SC1  576   3.222   0.867   4.060 -0.0843 -0.0840  0.1577
    3TYR     BB  577   3.488   0.862   3.650  0.1610  0.1863 -0.1224
    3TYR    SC1  578   3.246   0.875   3.515  0.0599  0.0392  0.1616
    3TYR    SC2  579   2.981   0.837   3.558  0.0722 -0.3611 -0.0521
    3TYR    SC3  580   3.067   0.936   3.322  0.1114 -0.0436  0.0871
    1TYR     BB  581   5.978   4.333   3.504 -0.2285  0.1193  0.3983
    1TYR    SC1  582   6.178   4.117   3.391 -0.0028  0.1228  0.2068
    1TYR    SC2  583   6.360   3.917   3.386 -0.2670 -0.1235  0.0945
    1TYR    SC3  584   6.132   3.896   3.243 -0.1878  0.3786 -0.1335
    2SER     BB  585   6.112   4.453   3.716  0.0853  0.0454  0.3572
    2SER    SC1  586   6.156   4.647   3.845  0.1024  0.0208 -0.0972
    3TYR     BB  587   6.390   4.203   3.805  0.0315  0.1732 -0.0703
    3TYR    SC1  588   6.555   4.133   4.014  0.0506  0.0641  0.2183
    3TYR    SC2  589   6.817   4.182   4.057  0.1098 -0.0768  0.0298
    3TYR    SC3  590   6.654   4.129   4.265  0.3055 -0.3423  0.1231
    1TYR     BB  591   1.564   5.312   3.624 -0.0030 -0.3217  0.1620
    1TYR    SC1  592   1.642   5.599   3.699  0.1430  0.0826 -0.2038
    1TYR    SC2  593   1.702   5.818   3.845  0.5036 -0.0571 -0.1290
    1TYR    SC3  594   1.823   5.776   3.609  0.1695 -0.0022 -0.3182
    2SER     BB  595   1.570   5.336   3.257 -0.0683 -0.1545 -0.2253
    2SER    SC1  596   1.636   5.525   3.168 -0.0549 -0.2343  0.2526
    3TYR     BB  597   1.303   5.082   3.208  0.3623  0.0108  0.1004
    3TYR    SC1  598   1.422   4.858   3.050  0.1370 -0.3986  0.2018
    3TYR    SC2  599   1.481   4.798   2.793  0.0790  0.3282 -0.0100
    3TYR    SC3  600   1.634   4.700   2.994  0.2276 -0.1160 -0.3194
    1TYR     BB  601   4.844   4.833   5.153  0.1066  0.3806  0.1587
    1TYR    SC1  602   4.899   4.929   5.458  0.4780 -0.1290  0.2162
    1TYR    SC2  603   4.864   5.102   5.663  0.3342 -0.0609  0.1366
    1TYR    SC3  604   4.811   4.839   5.697  0.4921 -0.0822  0.2392
    2SER     BB  605   5.104   4.599   5.194 -0.0978  0.2042 -0.1113
    2SER    SC1  606   5.045   4.476   5.431 -0.2083 -0.0917  0.1585
    3TYR     BB  607   5.387   4.453   5.066 -0.0847  0.2556  0.5207
    3TYR    SC1  608   5.630   4.606   5.046  0.3145  0.1430  0.1193
    3TYR    SC2  609   5.684   4.862   4.974  0.3097  0.1216  0.0392
    3TYR    SC3  610   5.870   4.715   5.104  0.2592  0.2140  0.2200
    1TYR     BB  611   7.533   5.532   3.168 -0.0167 -0.0716 -0.1503
    1TYR    SC1  612   7.486   5.383   3.402 -0.4637  0.1665 -0.0738
    1TYR    SC2  613   7.450   5.214   3.609 -0.5597  0.0194 -0.2073
    1TYR    SC3  614   7.540   5.465   3.653 -0.1745 -0.1394 -0.0278
    2SER     BB  615   7.693   5.866   3.278 -0.1455 -0.0492  0.0440
    2SER    SC1  616   7.734   5.921   3.513 -0.1592  0.1824 -0.0710
    3TYR     BB  617   7.637   5.955   2.956 -0.1279  0.1332  0.0222
    3TYR    SC1  618   7.424   6.124   2.758  0.1144  0.1260 -0.1233
    3TYR    SC2  619   7.280   6.305   2.619 -0.0319  0.2560  0.1851
    3TYR    SC3  620   7.173   6.064   2.675 -0.0139  0.2433  0.1657
    1TYR     BB  621   4.054   3.592   5.231  0.1049  0.2310 -0.1199
    1TYR    SC1  622   4.091   3.547   5.505  0.1739 -0.1141  0.0429
    1TYR    SC2  623   4.175   3.690   5.718  0.2050 -0.2063  0.0935
    1TYR    SC3  624   4.093   3.435   5.750  0.0664 -0.1721  0.0180
    2SER     BB  625   3.745   3.686   5.200  0.0028 -0.1976 -0.0054
    2SER    SC1  626   3.687   3.752   4.972 -0.1131  0.0034  0.0471
    3TYR     BB  627   3.648   3.795   5.547 -0.1239 -0.0249 -0.3342
    3TYR    SC1  628   3.805   3.963   5.694  0.0456 -0.2906 -0.2252
    3TYR    SC2  629   4.043   4.071   5.760 -0.0350 -0.1846 -0.1009
    3TYR    SC3  630   3.826   4.121   5.912 -0.1927 -0.0692 -0.3572
    1TYR     BB  631   7.489   4.023   3.105 -0.0650 -0.0451 -0.1598
    1TYR    SC1  632   7.431   3.703   3.125  0.0747  0.0383  0.0337
    1TYR    SC2  633   7.515   3.459   3.204  0.0647 -0.0105 -0.1014
    1TYR    SC3  634   7.426   3.495   2.953 -0.3341  0.0353  0.0380
    2SER     BB  635   7.472   4.001   2.739  0.1327 -0.1731  0.0725
    2SER    SC1  636   7.583   3.816   2.601 -0.0036 -0.1095 -0.2297
    3TYR     BB  637   7.455   4.329   2.634  0.0697 -0.2160 -0.0119
    3TYR    SC1  638   7.552   4.275   2.335 -0.1695  0.0150 -0.0854
    3TYR    SC2  639   7.700   4.150   2.145  0.0045  0.0685  0.0128
    3TYR    SC3  640   7.742   4.412   2.199 -0.1384  0.0885  0.0309
    1TYR     BB  641   2.301   4.945   3.652 -0.0450  0.0636 -0.1067
    1TYR    SC1  642   2.515   5.006   3.809  0.1337  0.1637 -0.0955
    1TYR    SC2  643   2.681   4.968   4.019 -0.2636  0.2754  0.2544
    1TYR    SC3  644   2.622   5.218   3.938 -0.2379  0.2352  0.1062
    2SER     BB  645   2.269   5.228   3.483 -0.1185 -0.1118 -0.0040
    2SER    SC1  646   2.056   5.344   3.460  0.1857 -0.1627  0.1034
    3TYR     BB  647   2.511   5.355   3.268 -0.0172  0.0236 -0.2144
    3TYR    SC1  648   2.557   5.187   3.009  0.0546 -0.1664  0.2082
    3TYR    SC2  649   2.759   5.056   2.887 -0.1143 -0.2473  0.0086
    3TYR    SC3  650   2.503   5.019   2.805 -0.1683  0.2252 -0.0719
    1TYR     BB  651   4.817   1.968   4.405  0.0681 -0.2137 -0.0028
    1TYR    SC1  652   5.141   2.083   4.373 -0.1557 -0.1368  0.3578
    1TYR    SC2  653   5.366   2.186   4.481  0.2866 -0.6866  0.0315
    1TYR    SC3  654   5.309   2.231   4.220 -0.3450 -0.0357  0.2427
    2SER     BB  655   4.757   1.731   4.224 -0.2159 -0.0209  0.0898
    2SER    SC1  656   4.894   1.535   4.191 -0.1174  0.0871 -0.4503
    3TYR     BB  657   4.432   1.760   4.181  0.0964  0.1482 -0.0476
    3TYR    SC1  658   4.303   1.886   4.440 -0.1912 -0.1586  0.0727
    3TYR    SC2  659   4.069   1.952   4.558 -0.0285 -0.1171  0.3833
    3TYR    SC3  660   4.294   1.934   4.704  0.2021  0.0151  0.0618
    1TYR     BB  661   6.345   4.698   2.842 -0.2000  0.0672  0.0345
    1TYR    SC1  662   6.244   4.653   2.560  0.1110  0.0313 -0.1442
    1TYR    SC2  663   6.084   4.503   2.402  0.2460 -0.1240 -0.1362
    1TYR    SC3  664   6.295   4.633   2.295  0.1672  0.0087 -0.1320
    2SER     BB  665   6.191   4.554   3.099  0.0282  0.1955  0.1924
    2SER    SC1  666   6.018   4.405   3.020 -0.0479  0.1504 -0.2869
    3TYR     BB  667   6.281   4.714   3.351  0.1155 -0.0931  0.0641
    3TYR    SC1  668   6.422   5.016   3.288 -0.1064  0.2077 -0.0946
    3TYR    SC2  669   6.590   5.228   3.299  0.0877  0.0472  0.1608
    3TYR    SC3  670   6.507   5.133   3.060  0.0710  0.3498  0.0416
    1TYR     BB  671   0.955   5.268   4.280  0.4329  0.0125 -0.0931
    1TYR    SC1  672   0.826   5.445   4.042  0.0125  0.0958  0.0676
    1TYR    SC2  673   0.607   5.573   3.949  0.1291  0.0779 -0.2469
    1TYR    SC3  674   0.851   5.683   3.916  0.1776  0.0669  0.0427
    2SER     BB  675   0.942   4.921   4.246  0.3535  0.2812  0.0111
    2SER    SC1  676   0.898   4.836   4.026  0.0117 -0.2394 -0.0205
    3TYR     BB  677   0.957   4.769   4.579 -0.2497 -0.1384 -0.1055
    3TYR    SC1  678   1.255   4.677   4.599  0.0903 -0.1349  0.0734
    3TYR    SC2  679   1.438   4.591   4.420 -0.0143  0.1383 -0.1750
    3TYR    SC3  680   1.498   4.796   4.585 -0.0175  0.0720 -0.0903
    1TYR     BB  681   0.538   4.608   4.371 -0.1097 -0.0116 -0.1445
    1TYR    SC1  682   0.279   4.528   4.472 -0.2797  0.1711  0.0887
    1TYR    SC2  683   0.064   4.396   4.375 -0.4422  0.3239  0.2309
    1TYR    SC3  684   0.164   4.332   4.618 -0.1560  0.0730  0.0566
    2SER     BB  685   0.749   4.344   4.521 -0.1479  0.2293  0.0151
    2SER    SC1  686   0.646   4.298   4.741  0.0968 -0.4234 -0.1425
    3TYR     BB  687   0.974   4.315   4.278  0.0535  0.2797 -0.1972
    3TYR    SC1  688   1.212   4.129   4.346 -0.0627 -0.0895 -0.2532
    3TYR    SC2  689   1.478   4.148   4.388 -0.1009 -0.2365  0.1109
    3TYR    SC3  690   1.344   3.931   4.474 -0.3607 -0.1115  0.0354
    1TYR     BB  691   2.902   3.379   4.118 -0.2509  0.0701 -0.0140
    1TYR    SC1  692   2.886   3.138   3.912 -0.3522  0.0812  0.0820
    1TYR    SC2  693   2.811   2.888   3.842 -0.3519 -0.0221  0.4274
    1TYR    SC3  694   3.044   2.989   3.752 -0.2601 -0.2195  0.4359
    2SER     BB  695   2.843   3.430   4.421 -0.0297  0.1418 -0.0124
    2SER    SC1  696   2.609   3.384   4.509 -0.0526 -0.0841 -0.1440
    3TYR     BB  697   3.104   3.449   4.641  0.1549 -0.3658  0.1570
    3TYR    SC1  698   3.209   3.699   4.669 -0.1410 -0.0964 -0.0890
    3TYR    SC2  699   3.376   3.869   4.543 -0.2074 -0.0262 -0.0843
    3TYR    SC3  700   3.279   3.932   4.786  0.2437 -0.3412  0.1992
    1TYR     BB  701   5.035   5.218   3.856 -0.0880  0.3015 -0.1840
    1TYR    SC1  702   5.025   5.234   4.146 -0.0116  0.1136  0.1137
    1TYR    SC2  703   4.906   5.314   4.375 -0.1321 -0.3102  0.2116
    1TYR    SC3  704   5.135   5.173   4.385  0.0770  0.0044  0.0460
    2SER     BB  705   4.981   5.473   3.749 -0.1417 -0.3556 -0.2733
    2SER    SC1  706   5.074   5.584   3.546 -0.0992  0.1194 -0.0035
    3TYR     BB  707   4.767   5.737   3.961 -0.1416  0.1344 -0.1694
    3TYR    SC1  708   4.954   5.730   4.200 -0.0443 -0.1735 -0.2201
    3TYR    SC2  709   5.002   5.723   4.465 -0.1783  0.1431 -0.1813
    3TYR    SC3  710   5.195   5.649   4.292 -0.1545 -0.2633  0.0010
    1TYR     BB  711   3.928   3.153   4.989  0.1051 -0.0155  0.0727
    1TYR    SC1  712   3.789   3.120   5.227 -0.1760  0.4930  0.2206
    1TYR    SC2  713   3.728   3.230   5.466  0.0803  0.1450  0.4585
    1TYR    SC3  714   3.629   2.988   5.400 -0.2532  0.3735  0.0611
    2SER     BB  715   3.879   2.894   4.793  0.0933  0.1891 -0.2249
    2SER    SC1  716   3.892   2.927   4.564 -0.0204 -0.3543  0.0533
    3TYR     BB  717   3.762   2.662   4.995 -0.3447  0.1525 -0.0730
    3TYR    SC1  718   3.656   2.408   4.879 -0.2759 -0.0104  0.3532
    3TYR    SC2  719   3.688   2.150   4.804 -0.0265  0.0671  0.1822
    3TYR    SC3  720   3.445   2.264   4.792 -0.1036 -0.1060  0.0742
    1TYR     BB  721   7.016   3.747   2.690 -0.5320 -0.0963 -0.2094
    1TYR    SC1  722   7.051   3.945   2.453  0.0676  0.3720  0.0592
    1TYR    SC2  723   7.019   4.205   2.387  0.2725  0.3507 -0.1400
    1TYR    SC3  724   7.183   4.048   2.240 -0.1091  0.0201 -0.2331
    2SER     BB  725   6.996   3.869   3.019  0.1597  0.0750  0.1795
    2SER    SC1  726   6.970   3.802   3.247 -0.2273 -0.1687 -0.0662
    3TYR     BB  727   7.030   4.229   2.889 -0.1988  0.0683  0.1287
    3TYR    SC1  728   7.105   4.296   3.180  0.0751 -0.2771  0.1225
    3TYR    SC2  729   7.149   4.263   3.444 -0.1392 -0.0151  0.1960
    3TYR    SC3  730   7.227   4.491   3.321  0.1083 -0.2021 -0.0071
    1TYR     BB  731   3.378   3.864   2.509 -0.2287  0.1383  0.1669
    1TYR    SC1  732   3.221   3.880   2.256 -0.0264  0.0795  0.1573
    1TYR    SC2  733   3.200   3.790   2.002  0.2936  0.0498  0.1374
    1TYR    SC3  734   2.982   3.797   2.160  0.0052  0.4186 -0.2498
    2SER     BB  735   3.272   3.569   2.604 -0.0250 -0.0674 -0.1255
    2SER    SC1  736   3.081   3.458   2.482  0.1402 -0.2266 -0.1726
    3TYR     BB  737   3.417   3.441   2.854  0.2332  0.0649 -0.3575
    3TYR    SC1  738   3.664   3.501   2.820  0.1822  0.0081  0.1568
    3TYR    SC2  739   3.899   3.583   2.923  0.2409  0.0673 -0.0202
    3TYR    SC3  740   3.867   3.568   2.656  0.0224  0.1201  0.0006
    1TYR     BB  741  -0.277   4.987   2.725 -0.1474 -0.1706  0.1505
    1TYR    SC1  742  -0.372   4.760   2.529  0.0391  0.1604 -0.2711
    1TYR    SC2  743  -0.372   4.529   2.391  0.0070 -0.2283  0.3352
    1TYR    SC3  744  -0.576   4.587   2.557 -0.0231  0.2870  0.1393
    2SER     BB  745  -0.387   4.912   3.014  0.0240  0.0570 -0.1169
    2SER    SC1  746  -0.327   5.112   3.172  0.0009 -0.1166 -0.3419
    3TYR     BB  747  -0.502   4.630   3.045 -0.4997  0.1688 -0.1259
    3TYR    SC1  748  -0.838   4.654   3.058 -0.0654  0.0866 -0.1073
    3TYR    SC2  749  -1.067   4.606   2.922  0.1211 -0.1730 -0.3403
    3TYR    SC3  750  -1.073   4.629   3.191 -0.1757 -0.1950 -0.3409
    1TYR     BB  751   4.743   4.858   3.725  0.0485  0.0911  0.3293
    1TYR    SC1  752   4.641   4.580   3.598  0.2998  0.1216  0.1317
    1TYR    SC2  753   4.561   4.323   3.582 -0.1162  0.2473  0.0672
    1TYR    SC3  754   4.690   4.438   3.375 -0.2108  0.1777 -0.0320
    2SER     BB  755   5.044   4.834   3.449  0.1804  0.0902 -0.2910
    2SER    SC1  756   5.154   4.654   3.592 -0.1995  0.0147  0.0105
    3TYR     BB  757   5.026   5.136   3.330 -0.0065  0.0784  0.1617
    3TYR    SC1  758   4.952   5.149   3.075  0.1222  0.5970 -0.1995
    3TYR    SC2  759   4.771   5.132   2.875 -0.2181  0.1938  0.1170
    3TYR    SC3  760   5.017   5.022   2.846 -0.2728  0.1163 -0.0647
    1TYR     BB  761   0.274   3.535   4.429  0.2638 -0.2894  0.2091
    1TYR    SC1  762   0.592   3.400   4.382  0.2319 -0.0362  0.0556
    1TYR    SC2  763   0.784   3.289   4.230  0.1945 -0.0595  0.0252
    1TYR    SC3  764   0.793   3.265   4.499  0.2976  0.0396  0.0312
    2SER     BB  765   0.078   3.324   4.182  0.3741  0.0120 -0.0083
    2SER    SC1  766   0.252   3.209   4.063 -0.1230  0.1636  0.0396
    3TYR     BB  767  -0.273   3.408   4.176 -0.0904  0.2443  0.2838
    3TYR    SC1  768  -0.524   3.428   4.335 -0.1430 -0.2371 -0.1656
    3TYR    SC2  769  -0.738   3.571   4.254  0.0059  0.0733 -0.0294
    3TYR    SC3  770  -0.771   3.323   4.356 -0.2488 -0.0345 -0.3566
    1TYR     BB  771   6.292   4.319   4.576  0.2102  0.1176 -0.2360
    1TYR    SC1  772   6.424   4.545   4.384 -0.0077 -0.2680  0.0522
    1TYR    SC2  773   6.452   4.781   4.256  0.0483 -0.0692  0.4155
    1TYR    SC3  774   6.544   4.553   4.142  0.0155  0.0828  0.0706
    2SER     BB  775   6.106   4.134   4.346 -0.1818 -0.0707 -0.2706
    2SER    SC1  776   6.014   4.301   4.187  0.2011 -0.1618 -0.0502
    3TYR     BB  777   6.225   3.854   4.293 -0.1377  0.1621 -0.1580
    3TYR    SC1  778   6.078   3.640   4.213 -0.2097 -0.0661  0.0772
    3TYR    SC2  779   6.122   3.388   4.127 -0.0043  0.0410 -0.1468
    3TYR    SC3  780   5.877   3.499   4.099 -0.0469 -0.0687 -0.2202
    1TYR     BB  781   4.215   4.454   2.739  0.0217  0.3911 -0.0017
    1TYR    SC1  782   4.178   4.557   3.055 -0.2031  0.1689 -0.1778
    1TYR    SC2  783   4.160   4.467   3.309 -0.5747  0.1425 -0.2055
    1TYR    SC3  784   4.323   4.674   3.250  0.0004 -0.2425 -0.0687
    2SER     BB  785   4.020   4.136   2.805  0.0767  0.5656  0.1723
    2SER    SC1  786   3.812   4.099   2.631  0.1417 -0.0554 -0.0009
    3TYR     BB  787   3.862   3.989   3.109  0.0529  0.0899  0.0490
    3TYR    SC1  788   3.543   3.921   3.056 -0.0289 -0.1312 -0.0960
    3TYR    SC2  789   3.283   3.854   3.026 -0.0279 -0.1179 -0.1347
    3TYR    SC3  790   3.368   3.972   3.254 -0.0941  0.0600 -0.2002
    1TYR     BB  791   5.174   2.975   4.735 -0.3979  0.0804  0.0484
    1TYR    SC1  792   5.441   2.914   4.712  0.2505  0.1198 -0.0396
    1TYR    SC2  793   5.639   2.744   4.645  0.0619 -0.1552  0.0786
    1TYR    SC3  794   5.622   2.836   4.897  0.0648 -0.0921  0.0563
    2SER     BB  795   5.054   3.081   5.065  0.1341  0.2100 -0.2200
    2SER    SC1  796   4.800   3.132   5.038 -0.2073 -0.0858 -0.0830
    3TYR     BB  797   5.239   2.847   5.260 -0.0998 -0.0477  0.4844
    3TYR    SC1  798   5.207   2.594   5.062 -0.0327  0.3089  0.0799
    3TYR    SC2  799   5.324   2.488   4.843 -0.2162  0.3933 -0.0630
    3TYR    SC3  800   5.235   2.327   5.039 -0.1049  0.3130 -0.0770
    1TYR     BB  801   3.034   2.235   3.262  0.4394 -0.2743  0.2778
    1TYR    SC1  802   3.108   2.527   3.311  0.0731 -0.3385  0.0871
    1TYR    SC2  803   3.063   2.790   3.271 -0.1139 -0.3080  0.4441
    1TYR    SC3  804   3.261   2.709   3.438 -0.0223 -0.3992  0.2948
    2SER     BB  805   2.788   2.085   3.472 -0.0681  0.0106 -0.2172
    2SER    SC1  806   2.763   1.828   3.439  0.3436 -0.2030  0.0613
    3TYR     BB  807   2.623   2.148   3.771 -0.0857 -0.0191 -0.2378
    3TYR    SC1  808   2.717   1.910   3.953 -0.0039 -0.1212 -0.0844
    3TYR    SC2  809   2.782   1.758   4.166 -0.4079 -0.1463  0.0311
    3TYR    SC3  810   2.768   1.647   3.920  0.2303 -0.0834 -0.0600
    1TYR     BB  811   5.552   5.277   4.067  0.2154 -0.0113 -0.2502
    1TYR    SC1  812   5.495   5.553   3.957 -0.3568  0.0787  0.2958
    1TYR    SC2  813   5.350   5.773   3.897 -0.0153  0.1966 -0.1639
    1TYR    SC3  814   5.557   5.701   3.741  0.0466 -0.3141  0.1252
    2SER     BB  815   5.682   5.383   4.358  0.1451  0.0085 -0.0584
    2SER    SC1  816   5.755   5.229   4.546  0.1390  0.1100  0.1722
    3TYR     BB  817   5.757   5.685   4.339 -0.2063 -0.0989  0.3817
    3TYR    SC1  818   5.586   5.846   4.562  0.0431 -0.2622 -0.0323
    3TYR    SC2  819   5.347   5.965   4.591  0.0420 -0.2105 -0.2289
    3TYR    SC3  820   5.501   5.918   4.807  0.0585  0.1824 -0.1481
    1TYR     BB  821   3.254   4.645   4.834 -0.1541  0.5613 -0.0790
    1TYR    SC1  822   3.110   4.459   4.968 -0.0234 -0.0481 -0.1125
    1TYR    SC2  823   2.981   4.222   4.984  0.0025 -0.0433  0.2753
    1TYR    SC3  824   3.055   4.351   5.209  0.3942  0.1170  0.0672
    2SER     BB  825   3.142   4.532   4.486  0.1485  0.1009 -0.0700
    2SER    SC1  826   3.261   4.331   4.429 -0.1076 -0.1467  0.0307
    3TYR     BB  827   3.124   4.803   4.273 -0.1761 -0.1841 -0.0356
    3TYR    SC1  828   3.016   5.108   4.283  0.2806 -0.1762 -0.2526
    3TYR    SC2  829   3.074   5.365   4.227  0.0442 -0.0709 -0.0409
    3TYR    SC3  830   2.883   5.307   4.409  0.3478 -0.3956  0.1918
    1TYR     BB  831   4.600   4.302   5.004 -0.0190 -0.1275  0.2592
    1TYR    SC1  832   4.574   4.522   4.765  0.3118 -0.3676 -0.3383
    1TYR    SC2  833   4.655   4.745   4.636  0.1377 -0.1575 -0.0975
    1TYR    SC3  834   4.409   4.644   4.589  0.0759 -0.0838  0.0601
    2SER     BB  835   4.464   4.004   4.862 -0.1076  0.1648  0.2621
    2SER    SC1  836   4.243   3.947   4.938  0.0112  0.2360  0.1589
    3TYR     BB  837   4.680   3.880   4.680  0.2359  0.4452 -0.1400
    3TYR    SC1  838   4.937   3.917   4.531 -0.2526 -0.1280  0.2355
    3TYR    SC2  839   5.208   3.921   4.515 -0.2534 -0.2842  0.1554
    3TYR    SC3  840   5.058   3.965   4.294 -0.2914 -0.3498  0.1676
    1TYR     BB  841   0.638   4.268   3.318 -0.1602 -0.1148  0.0550
    1TYR    SC1  842   0.869   4.413   3.167 -0.2838  0.2313 -0.0529
    1TYR    SC2  843   0.895   4.433   2.899 -0.0280  0.4129 -0.0184
    1TYR    SC3  844   1.002   4.622   3.060  0.0312  0.1829  0.2226
    2SER     BB  845   0.517   3.950   3.158  0.0799 -0.0651 -0.1263
    2SER    SC1  846   0.600   3.922   2.950 -0.1203 -0.3160 -0.0589
    3TYR     BB  847   0.305   3.790   3.318  0.3239  0.0342  0.1952
    3TYR    SC1  848   0.198   3.952   3.514  0.1594 -0.0548 -0.3696
    3TYR    SC2  849  -0.018   4.032   3.656  0.0845 -0.1711 -0.4157
    3TYR    SC3  850   0.212   4.174   3.667  0.1904 -0.3557  0.0879
    1TYR     BB  851   5.491   4.815   4.408 -0.3533  0.0966 -0.0549
    1TYR    SC1  852   5.318   4.884   4.642 -0.0022 -0.2492 -0.1366
    1TYR    SC2  853   5.078   4.916   4.760  0.0507  0.1613 -0.1234
    1TYR    SC3  854   5.301   5.021   4.873  0.2110 -0.0513 -0.2312
    2SER     BB  855   5.714   4.606   4.532 -0.1203  0.1262 -0.2161
    2SER    SC1  856   5.957   4.686   4.541  0.0443 -0.2472 -0.0552
    3TYR     BB  857   5.677   4.302   4.625  0.1675  0.0076  0.0804
    3TYR    SC1  858   5.863   4.228   4.864 -0.2357 -0.3051  0.0657
    3TYR    SC2  859   5.903   4.284   5.125  0.0294  0.0846 -0.0480
    3TYR    SC3  860   6.048   4.091   5.005  0.0252  0.0185  0.0513
    1TYR     BB  861   2.248   4.917   4.185 -0.3775  0.1949  0.2145
    1TYR    SC1  862   2.362   5.139   4.346 -0.0335  0.0383  0.0513
    1TYR    SC2  863   2.448   5.199   4.595  0.0426  0.3690 -0.0482
    1TYR    SC3  864   2.321   5.386   4.447 -0.1587  0.1227 -0.1968
    2SER     BB  865   1.999   4.825   4.113 -0.1225  0.1226 -0.2933
    2SER    SC1  866   1.880   4.628   4.233  0.0685 -0.2833  0.0162
    3TYR     BB  867   1.855   5.004   3.885 -0.0731  0.1078  0.0078
    3TYR    SC1  868   1.951   5.290   3.957 -0.1188 -0.1320  0.1342
    3TYR    SC2  869   2.018   5.528   4.063 -0.2894 -0.0261  0.0096
    3TYR    SC3  870   2.209   5.364   3.972 -0.1901  0.3255 -0.4568
    1TYR     BB  871   4.748   2.895   4.480  0.1199  0.0919  0.3322
    1TYR    SC1  872   4.807   2.628   4.624  0.0586 -0.0152  0.0622
    1TYR    SC2  873   4.963   2.409   4.647  0.1282  0.0344  0.0708
    1TYR    SC3  874   4.695   2.390   4.682  0.1218 -0.0671 -0.0267
    2SER     BB  875   4.461   2.713   4.248 -0.2706  0.1447 -0.3478
    2SER    SC1  876   4.274   2.849   4.288  0.1192  0.0632  0.1788
    3TYR     BB  877   4.435   2.386   4.259  0.2347  0.0576 -0.1939
    3TYR    SC1  878   4.234   2.187   4.108 -0.0199 -0.1867  0.0924
    3TYR    SC2  879   4.131   2.075   3.885 -0.2821 -0.1668  0.2002
    3TYR    SC3  880   4.017   2.027   4.126  0.0750 -0.2931  0.3510
    1TYR     BB  881   2.188   2.591   3.690  0.2499 -0.2624 -0.0043
    1TYR    SC1  882   2.444   2.539   3.520  0.0812 -0.0354  0.0630
    1TYR    SC2  883   2.706   2.600   3.551 -0.0124  0.3653  0.1468
    1TYR    SC3  884   2.613   2.522   3.308  0.2184 -0.0096  0.1684
    2SER     BB  885   2.226   2.410   4.001 -0.2827  0.3402 -0.0332
    2SER    SC1  886   2.173   2.182   4.062 -0.0236 -0.1371  0.0016
    3TYR     BB  887   2.607   2.519   4.091 -0.1546 -0.0072 -0.0361
    3TYR    SC1  888   2.654   2.334   4.312  0.0725  0.0890  0.0615
    3TYR    SC2  889   2.755   2.112   4.427  0.2172 -0.0150 -0.2523
    3TYR    SC3  890   2.488   2.151   4.422  0.2064  0.0478  0.1993
    1TYR     BB  891   4.909   4.366   3.929 -0.0877  0.1794  0.1087
    1TYR    SC1  892   4.932   4.584   4.041  0.0124  0.1838  0.0376
    1TYR    SC2  893   5.121   4.771   4.086  0.0473  0.1396  0.0756
    1TYR    SC3  894   4.881   4.791   4.205 -0.1051  0.3960 -0.2546
    2SER     BB  895   5.339   4.272   3.953  0.0959  0.0252  0.1901
    2SER    SC1  896   5.383   4.330   4.194  0.1121  0.2056  0.0208
    3TYR     BB  897   5.483   4.233   3.730 -0.0897  0.0721  0.2909
    3TYR    SC1  898   5.514   3.978   3.575 -0.1820 -0.1869  0.0755
    3TYR    SC2  899   5.699   3.877   3.406 -0.0521 -0.0151  0.1114
    3TYR    SC3  900   5.440   3.810   3.376 -0.0167 -0.0737 -0.0866
    1TYR     BB  901   2.900   3.528   2.995 -0.3156  0.2209  0.1271
    1TYR    SC1  902   2.936   3.237   2.899 -0.1193  0.0338 -0.0342
    1TYR    SC2  903   3.093   3.017   2.882 -0.0325  0.0741  0.1945
    1TYR    SC3  904   2.825   2.991   2.899 -0.0305 -0.0082  0.1082
    2SER     BB  905   2.564   3.513   3.094  0.0831  0.1334  0.2386
    2SER    SC1  906   2.525   3.760   3.105  0.0161 -0.3369 -0.0431
    3TYR     BB  907   2.343   3.180   3.033  0.3029  0.1501 -0.2293
    3TYR    SC1  908   2.172   3.281   3.319 -0.1954  0.0102  0.0568
    3TYR    SC2  909   2.283   3.442   3.504 -0.0165  0.1240 -0.1442
    3TYR    SC3  910   2.022   3.470   3.439 -0.1314 -0.0367  0.2140
    1TYR     BB  911   4.686   2.099   3.938 -0.3204  0.1267  0.1145
    1TYR    SC1  912   4.876   2.297   4.056 -0.1096  0.1933 -0.1977
    1TYR    SC2  913   4.947   2.524   4.181  0.2697  0.0829 -0.1989
    1TYR    SC3  914   5.000   2.493   3.919  0.2033  0.0005 -0.2029
    2SER     BB  915   4.584   2.376   3.650 -0.3126  0.1682 -0.0380
    2SER    SC1  916   4.434   2.464   3.737 -0.0566 -0.0626 -0.0758
    3TYR     BB  917   4.871   2.469   3.456 -0.2195 -0.0142 -0.0628
    3TYR    SC1  918   4.917   2.403   3.158 -0.0523  0.3164 -0.1082
    3TYR    SC2  919   4.918   2.226   2.954 -0.2995  0.1303  0.0446
    3TYR    SC3  920   5.136   2.378   3.003 -0.1376 -0.0222 -0.1825
    1TYR     BB  921   3.312   4.802   3.439 -0.0257  0.0120 -0.0206
    1TYR    SC1  922   3.361   4.888   3.188  0.2471  0.0867  0.0950
    1TYR    SC2  923   3.449   4.895   2.933  0.1306  0.2277  0.0568
    1TYR    SC3  924   3.220   5.023   3.000  0.1110  0.1135  0.2138
    2SER     BB  925   3.167   4.885   3.704 -0.0151  0.0712 -0.2115
    2SER    SC1  926   3.178   5.085   3.827 -0.0295 -0.1433  0.0657
    3TYR     BB  927   2.971   4.664   3.762 -0.0357  0.2072 -0.3250
    3TYR    SC1  928   2.951   4.422   3.977  0.2616  0.0366  0.2280
    3TYR    SC2  929   2.952   4.167   4.064 -0.2811 -0.0726 -0.0227
    3TYR    SC3  930   2.785   4.346   4.178 -0.0508  0.1268  0.0134
    1TYR     BB  931   4.123   4.492   4.948  0.1251 -0.0584 -0.3231
    1TYR    SC1  932   4.035   4.377   5.193 -0.3326 -0.1512  0.1071
    1TYR    SC2  933   3.941   4.367   5.446 -0.2916  0.0096  0.1292
    1TYR    SC3  934   3.942   4.144   5.295 -0.1671 -0.1256  0.3238
    2SER     BB  935   3.975   4.308   4.713  0.0967 -0.3327  0.0114
    2SER    SC1  936   4.157   4.235   4.523 -0.2347  0.0340 -0.1572
    3TYR     BB  937   3.723   4.227   4.762  0.3205 -0.0616  0.2897
    3TYR    SC1  938   3.588   4.248   5.007 -0.0247 -0.0480  0.1351
    3TYR    SC2  939   3.504   4.386   5.223 -0.1814 -0.1046  0.1116
    3TYR    SC3  940   3.435   4.128   5.192  0.1533 -0.2096  0.1818
    1TYR     BB  941   4.390   3.224   5.262 -0.0144  0.1470  0.0902
    1TYR    SC1  942   4.244   3.055   5.457 -0.2712  0.3537 -0.1016
    1TYR    SC2  943   4.078   2.997   5.660  0.0609  0.3837  0.1910
    1TYR    SC3  944   4.095   2.830   5.449  0.2535 -0.0686  0.5391
    2SER     BB  945   4.580   3.503   5.319  0.4123  0.0376  0.3701
    2SER    SC1  946   4.632   3.618   5.104 -0.0874  0.2648  0.2761
    3TYR     BB  947   4.665   3.511   5.621  0.0533  0.1198  0.2881
    3TYR    SC1  948   4.742   3.217   5.643  0.3260  0.0903 -0.2215
    3TYR    SC2  949   4.761   2.976   5.523  0.0551 -0.0103 -0.0784
    3TYR    SC3  950   4.819   3.001   5.786 -0.0531  0.0499 -0.0598
    1TYR     BB  951   6.926   4.859   4.259 -0.2526 -0.0400  0.0998
    1TYR    SC1  952   6.927   4.540   4.386 -0.0871 -0.0273 -0.0070
    1TYR    SC2  953   6.809   4.409   4.591 -0.0518  0.0252  0.0471
    1TYR    SC3  954   7.031   4.307   4.477 -0.2396 -0.1595 -0.1639
    2SER     BB  955   7.229   4.868   4.193  0.1842 -0.2718 -0.1595
    2SER    SC1  956   7.411   4.744   4.342  0.1610  0.2126 -0.0570
    3TYR     BB  957   7.212   4.714   3.806 -0.2762  0.0174  0.1353
    3TYR    SC1  958   7.330   4.466   3.920  0.0662  0.0877 -0.2295
    3TYR    SC2  959   7.321   4.249   4.081  0.2703  0.0075 -0.3224
    3TYR    SC3  960   7.542   4.300   3.935  0.1987  0.2424 -0.3543
    1TYR     BB  961   6.116   5.394   3.334 -0.2399 -0.1368 -0.2281
    1TYR    SC1  962   5.995   5.246   3.061 -0.1095 -0.2156 -0.0298
    1TYR    SC2  963   6.094   5.112   2.848 -0.1671 -0.2749 -0.0198
    1TYR    SC3  964   5.837   5.194   2.848 -0.1276 -0.1490 -0.0325
    2SER     BB  965   5.964   5.307   3.562 -0.0169 -0.0431  0.2661
    2SER    SC1  966   5.982   5.035   3.593 -0.0588 -0.0658 -0.1493
    3TYR     BB  967   5.974   5.447   3.907  0.2474  0.0761 -0.0579
    3TYR    SC1  968   6.045   5.211   4.063 -0.7239 -0.1393  0.0321
    3TYR    SC2  969   6.155   5.064   4.260 -0.0925 -0.0512 -0.2239
    3TYR    SC3  970   5.956   4.961   4.111  0.0253 -0.4687 -0.1103
    1TYR     BB  971   1.812   4.937   3.402  0.0245  0.1010  0.1081
    1TYR    SC1  972   1.902   5.032   3.119 -0.0507  0.2734  0.1757
    1TYR    SC2  973   2.070   5.184   2.973  0.2119 -0.1953 -0.0375
    1TYR    SC3  974   1.855   5.070   2.856 -0.0362  0.0715  0.1417
    2SER     BB  975   1.872   4.606   3.506  0.1419 -0.1077  0.0092
    2SER    SC1  976   1.911   4.443   3.322  0.1804  0.0707  0.1351
    3TYR     BB  977   1.967   4.429   3.829  0.1832  0.0126  0.1932
    3TYR    SC1  978   2.259   4.495   3.834 -0.1226 -0.0999  0.1900
    3TYR    SC2  979   2.462   4.455   3.660 -0.2124  0.1941  0.0070
    3TYR    SC3  980   2.507   4.570   3.900 -0.1910  0.5158 -0.1435
    1TYR     BB  981   3.766   1.523   2.812  0.1348  0.0947  0.2332
    1TYR    SC1  982   3.554   1.368   2.995 -0.0777  0.3597  0.4318
    1TYR    SC2  983   3.294   1.309   3.032 -0.0944 -0.1394 -0.2332
    1TYR    SC3  984   3.467   1.291   3.239 -0.5286 -0.0668  0.1582
    2SER     BB  985   3.946   1.644   3.055  0.1945  0.2439  0.0453
    2SER    SC1  986   3.934   1.706   3.257 -0.1387  0.2308 -0.5242
    3TYR     BB  987   4.235   1.535   2.919  0.2012  0.3061 -0.0679
    3TYR    SC1  988   4.479   1.747   2.921 -0.0899  0.4576  0.0840
    3TYR    SC2  989   4.712   1.853   3.007  0.0900  0.0168  0.1713
    3TYR    SC3  990   4.651   1.858   2.744  0.3701 -0.1661  0.0960
    1TYR     BB  991   4.823   1.071   3.625 -0.2224  0.0501  0.1144
    1TYR    SC1  992   4.841   1.010   3.911 -0.0324 -0.2183 -0.1452
    1TYR    SC2  993   4.790   0.818   4.092  0.1468 -0.0445  0.0992
    1TYR    SC3  994   4.920   1.041   4.167  0.0209  0.1363 -0.1977
    2SER     BB  995   4.949   1.424   3.678 -0.0521  0.2155  0.2554
    2SER    SC1  996   4.770   1.622   3.740  0.1144 -0.0729  0.2672
    3TYR     BB  997   5.145   1.459   3.501 -0.2622  0.0154 -0.0519
    3TYR    SC1  998   5.427   1.589   3.525  0.1030 -0.1817  0.2066
    3TYR    SC2  999   5.547   1.819   3.602  0.2052 -0.2081  0.1303
    3TYR    SC3 1000   5.589   1.722   3.353  0.0594 -0.2422  0.1177
   7.66777   7.66777   7.66777
