Generated by trjconv : Martini system from ../2_Creating_coordinates/TYR-ARG-TYR_aa.pdb t=   0.00000
 1100
    1TYR     BB    1   6.566   4.605   3.120  0.1304  0.2091 -0.0157
    1TYR    SC1    2   6.456   4.842   2.913  0.1501 -0.0374 -0.1658
    1TYR    SC2    3   6.478   5.014   2.706  0.0806  0.3777  0.1530
    1TYR    SC3    4   6.238   4.908   2.768  0.1544 -0.0077 -0.1586
    2ARG     BB    5   6.768   4.651   3.395  0.1261  0.2489 -0.0490
    2ARG    SC1    6   7.058   4.626   3.318  0.3040  0.1326  0.0434
    2ARG    SC2    7   7.300   4.453   3.533 -0.1306 -0.1096  0.0248
    3TYR     BB    8   6.810   4.588   3.735  0.0068  0.2123  0.2936
    3TYR    SC1    9   6.799   4.816   3.912  0.2682  0.1622 -0.0026
    3TYR    SC2   10   6.699   4.918   4.141  0.0037 -0.1413  0.0252
    3TYR    SC3   11   6.794   5.082   3.949  0.2594  0.1175  0.3596
    1TYR     BB   12   5.720   3.119   3.902 -0.1073  0.1881 -0.0564
    1TYR    SC1   13   5.426   3.104   3.780  0.0337  0.0157 -0.0120
    1TYR    SC2   14   5.241   3.065   3.587  0.2697  0.2719 -0.3028
    1TYR    SC3   15   5.173   3.192   3.815 -0.0025  0.0061 -0.2285
    2ARG     BB   16   5.695   3.249   4.224 -0.0916  0.2900  0.1396
    2ARG    SC1   17   5.395   3.361   4.219 -0.3124 -0.1001  0.1787
    2ARG    SC2   18   5.127   3.281   4.399 -0.1168  0.2176  0.1716
    3TYR     BB   19   5.765   3.096   4.520  0.0319  0.2883  0.2040
    3TYR    SC1   20   5.575   3.111   4.751  0.1109  0.2279  0.1761
    3TYR    SC2   21   5.366   3.009   4.888  0.3961  0.0939  0.5321
    3TYR    SC3   22   5.370   3.272   4.824 -0.0544  0.0286  0.1609
    1TYR     BB   23   6.164   2.737   4.648  0.2626 -0.3780 -0.1264
    1TYR    SC1   24   6.227   2.887   4.365 -0.0715 -0.0282 -0.0997
    1TYR    SC2   25   6.300   3.146   4.338 -0.0759 -0.0047  0.0950
    1TYR    SC3   26   6.172   3.020   4.136 -0.0702  0.1429 -0.0028
    2ARG     BB   27   6.396   2.869   4.797  0.0077  0.0471  0.0092
    2ARG    SC1   28   6.418   2.857   5.117 -0.1683  0.2860  0.0318
    2ARG    SC2   29   6.204   2.809   5.385 -0.0519  0.2319  0.2716
    3TYR     BB   30   6.703   2.891   4.705  0.2019 -0.0044 -0.1812
    3TYR    SC1   31   6.894   2.829   4.941 -0.0311 -0.0830  0.2263
    3TYR    SC2   32   6.905   2.819   5.211 -0.2483 -0.1293  0.2361
    3TYR    SC3   33   7.132   2.838   5.067 -0.1341 -0.0350  0.4240
    1TYR     BB   34   3.465   6.353   5.254 -0.1287  0.2249  0.2263
    1TYR    SC1   35   3.216   6.532   5.322 -0.3312 -0.2963 -0.1388
    1TYR    SC2   36   3.056   6.745   5.275 -0.1374 -0.0495  0.2452
    1TYR    SC3   37   2.950   6.496   5.284 -0.3702  0.0184 -0.2007
    2ARG     BB   38   3.498   6.331   4.967  0.0577  0.0717  0.1882
    2ARG    SC1   39   3.411   6.617   4.795  0.1725 -0.2990 -0.1908
    2ARG    SC2   40   3.204   6.873   4.802  0.0795  0.2585 -0.1536
    3TYR     BB   41   3.607   6.193   4.800  0.0716 -0.0030 -0.3011
    3TYR    SC1   42   3.886   6.132   4.682  0.0883  0.0283  0.2615
    3TYR    SC2   43   4.064   5.930   4.656 -0.1880 -0.1653 -0.4168
    3TYR    SC3   44   4.066   6.137   4.482  0.0305  0.4138  0.2092
    1TYR     BB   45   3.128   3.142   2.408 -0.3629  0.1425 -0.2196
    1TYR    SC1   46   3.155   3.042   2.668  0.4059 -0.0168 -0.2079
    1TYR    SC2   47   3.087   2.849   2.845 -0.3092  0.1533 -0.2603
    1TYR    SC3   48   3.309   2.998   2.886  0.0752 -0.4380 -0.0424
    2ARG     BB   49   3.364   3.171   2.230  0.3359 -0.0685  0.1307
    2ARG    SC1   50   3.332   3.369   2.009  0.1163  0.0124  0.2773
    2ARG    SC2   51   3.103   3.404   1.848  0.2304  0.1648  0.0659
    3TYR     BB   52   3.528   2.939   2.123  0.1470  0.1080  0.0643
    3TYR    SC1   53   3.577   2.754   2.376  0.3680 -0.0141 -0.0148
    3TYR    SC2   54   3.417   2.687   2.582 -0.0813 -0.1802 -0.3932
    3TYR    SC3   55   3.677   2.741   2.626 -0.1613 -0.1876  0.2080
    1TYR     BB   56   0.201   2.351   5.215 -0.0185  0.1953  0.1038
    1TYR    SC1   57   0.451   2.482   5.169 -0.1222 -0.0271  0.3012
    1TYR    SC2   58   0.650   2.659   5.214 -0.3317  0.1549  0.5620
    1TYR    SC3   59   0.707   2.397   5.183 -0.0344  0.2331  0.3788
    2ARG     BB   60  -0.006   2.344   4.997 -0.1835  0.1620 -0.0766
    2ARG    SC1   61   0.059   2.088   4.804 -0.1384  0.0224  0.0614
    2ARG    SC2   62   0.028   2.010   4.489  0.0459  0.1978 -0.2635
    3TYR     BB   63  -0.096   2.541   4.759 -0.0997  0.2504  0.0131
    3TYR    SC1   64  -0.024   2.505   4.461  0.2534  0.0225  0.1632
    3TYR    SC2   65  -0.072   2.440   4.202  0.2040  0.3701  0.0793
    3TYR    SC3   66   0.180   2.438   4.297  0.1772 -0.3217  0.1987
    1TYR     BB   67   7.066   3.319   3.047 -0.4251 -0.3842  0.1414
    1TYR    SC1   68   7.175   3.240   3.301  0.1761 -0.1548  0.0162
    1TYR    SC2   69   7.349   3.342   3.480  0.0487 -0.1369  0.1320
    1TYR    SC3   70   7.271   3.084   3.499  0.1132 -0.1635  0.0404
    2ARG     BB   71   7.168   3.483   2.841 -0.0320  0.2727  0.2225
    2ARG    SC1   72   7.204   3.325   2.552 -0.2188 -0.2383 -0.1043
    2ARG    SC2   73   7.288   3.239   2.247  0.0337  0.2881  0.1732
    3TYR     BB   74   6.975   3.801   2.799  0.3356  0.2510  0.0423
    3TYR    SC1   75   6.750   3.612   2.680 -0.1764 -0.4941  0.2199
    3TYR    SC2   76   6.497   3.571   2.594 -0.2204  0.1184 -0.0084
    3TYR    SC3   77   6.700   3.424   2.493 -0.3988  0.1233 -0.3959
    1TYR     BB   78   3.100   6.032   5.286 -0.1581 -0.0878 -0.1157
    1TYR    SC1   79   3.003   6.143   4.988 -0.0192 -0.0240 -0.1597
    1TYR    SC2   80   2.959   6.082   4.728  0.5269 -0.0044 -0.2701
    1TYR    SC3   81   2.989   6.340   4.803 -0.0746  0.0331 -0.0952
    2ARG     BB   82   3.096   5.769   5.372 -0.3987 -0.0538  0.3622
    2ARG    SC1   83   2.949   5.729   5.673  0.0366  0.2493  0.0429
    2ARG    SC2   84   2.696   5.606   5.877 -0.0763  0.1085  0.0832
    3TYR     BB   85   3.194   5.502   5.324  0.0761 -0.1417  0.2820
    3TYR    SC1   86   3.437   5.400   5.399  0.0916 -0.0200 -0.2224
    3TYR    SC2   87   3.707   5.388   5.399  0.1093  0.1994  0.1399
    3TYR    SC3   88   3.571   5.392   5.633 -0.2150  0.0281 -0.0367
    1TYR     BB   89   1.152   3.351   2.662 -0.2453  0.1972 -0.0792
    1TYR    SC1   90   1.370   3.523   2.561  0.1949 -0.3291 -0.6580
    1TYR    SC2   91   1.634   3.533   2.613  0.1370  0.0798 -0.3873
    1TYR    SC3   92   1.511   3.745   2.500 -0.1825  0.1671  0.0910
    2ARG     BB   93   0.994   3.154   2.479 -0.0079  0.0825  0.1417
    2ARG    SC1   94   1.040   3.200   2.157 -0.0811  0.4103  0.2151
    2ARG    SC2   95   1.215   3.061   1.907  0.1539  0.0560 -0.1167
    3TYR     BB   96   0.940   2.855   2.459  0.1314  0.2815  0.0847
    3TYR    SC1   97   1.090   2.693   2.238 -0.0465 -0.3955 -0.0424
    3TYR    SC2   98   1.348   2.672   2.159 -0.0290 -0.1971 -0.0444
    3TYR    SC3   99   1.219   2.456   2.258  0.1742 -0.2700  0.0688
    1TYR     BB  100   3.883   6.636   4.837  0.2016  0.0413  0.2081
    1TYR    SC1  101   3.989   6.715   5.113 -0.2774  0.1170  0.1530
    1TYR    SC2  102   4.173   6.851   5.257  0.1278 -0.0920 -0.1403
    1TYR    SC3  103   4.078   6.616   5.349  0.1647 -0.0835 -0.0796
    2ARG     BB  104   4.055   6.745   4.633 -0.0159  0.1511 -0.1958
    2ARG    SC1  105   4.229   6.989   4.644  0.0185  0.2824  0.1858
    2ARG    SC2  106   4.440   7.180   4.456  0.1447 -0.1349  0.0218
    3TYR     BB  107   4.145   6.605   4.346 -0.2349 -0.0615  0.1237
    3TYR    SC1  108   4.459   6.605   4.374 -0.1678 -0.1116 -0.0530
    3TYR    SC2  109   4.672   6.521   4.232 -0.0159 -0.2730  0.2571
    3TYR    SC3  110   4.702   6.716   4.416 -0.1964 -0.1092  0.1175
    1TYR     BB  111   5.521   4.302   3.964  0.2696 -0.1322  0.2951
    1TYR    SC1  112   5.423   4.170   3.727 -0.3305  0.0604  0.2312
    1TYR    SC2  113   5.442   3.973   3.543  0.0010  0.2184  0.0842
    1TYR    SC3  114   5.422   4.231   3.465  0.0320  0.2805  0.2715
    2ARG     BB  115   5.452   4.628   4.086 -0.0596 -0.0716  0.1579
    2ARG    SC1  116   5.177   4.625   4.224  0.1358 -0.2508 -0.0861
    2ARG    SC2  117   5.111   4.933   4.366 -0.0232 -0.3203 -0.1624
    3TYR     BB  118   5.473   4.915   4.008  0.1863  0.1516 -0.1175
    3TYR    SC1  119   5.513   5.170   4.106 -0.1852  0.1191 -0.1325
    3TYR    SC2  120   5.571   5.418   4.017  0.1524  0.0742 -0.0558
    3TYR    SC3  121   5.548   5.372   4.281 -0.4210  0.1194 -0.0812
    1TYR     BB  122   2.433   5.836   3.964  0.0052 -0.1453 -0.0433
    1TYR    SC1  123   2.506   5.783   3.647  0.2113  0.3629  0.1412
    1TYR    SC2  124   2.693   5.845   3.464  0.0056 -0.0105 -0.2153
    1TYR    SC3  125   2.432   5.883   3.408 -0.0492  0.2945  0.1886
    2ARG     BB  126   2.360   5.559   4.096  0.0852  0.1056  0.0143
    2ARG    SC1  127   2.063   5.485   4.269 -0.0158  0.0569  0.1039
    2ARG    SC2  128   1.761   5.443   4.428 -0.0391  0.2364  0.1415
    3TYR     BB  129   2.616   5.373   4.205 -0.0742 -0.1637 -0.1221
    3TYR    SC1  130   2.592   5.338   4.526 -0.2959  0.1372  0.2210
    3TYR    SC2  131   2.624   5.096   4.641 -0.4013 -0.0140 -0.0544
    3TYR    SC3  132   2.505   5.296   4.778  0.2310  0.0814  0.4079
    1TYR     BB  133   3.307   7.028   4.087 -0.1178  0.1424 -0.0620
    1TYR    SC1  134   3.548   6.824   4.023  0.1968 -0.0769 -0.0396
    1TYR    SC2  135   3.778   6.687   3.993  0.2053 -0.1127  0.1685
    1TYR    SC3  136   3.541   6.571   3.932  0.2500 -0.0101 -0.2343
    2ARG     BB  137   3.161   6.809   4.250  0.2213 -0.0493 -0.1697
    2ARG    SC1  138   2.868   6.955   4.363 -0.2324  0.2911  0.0054
    2ARG    SC2  139   2.616   7.069   4.490 -0.1146  0.1946 -0.0772
    3TYR     BB  140   3.175   6.487   4.382  0.0885  0.2443  0.0668
    3TYR    SC1  141   3.440   6.397   4.328  0.0433 -0.3123  0.0420
    3TYR    SC2  142   3.655   6.259   4.241  0.1540  0.0084 -0.2197
    3TYR    SC3  143   3.689   6.493   4.372 -0.0357 -0.0000 -0.1510
    1TYR     BB  144   0.070   3.409   2.648 -0.0124  0.0705  0.0194
    1TYR    SC1  145   0.265   3.302   2.445  0.0462 -0.1019  0.0858
    1TYR    SC2  146   0.353   3.053   2.390  0.0016 -0.0816 -0.0824
    1TYR    SC3  147   0.479   3.267   2.284 -0.0000 -0.0352  0.0084
    2ARG     BB  148   0.171   3.593   2.826  0.0703  0.0854 -0.0288
    2ARG    SC1  149   0.149   3.917   2.815 -0.1035 -0.0168  0.0005
    2ARG    SC2  150   0.087   4.199   2.643  0.0445  0.2807 -0.1059
    3TYR     BB  151   0.211   3.525   3.148 -0.1088 -0.2650  0.0478
    3TYR    SC1  152   0.030   3.521   3.351 -0.0213  0.1418 -0.0109
    3TYR    SC2  153  -0.021   3.645   3.585  0.1057  0.1789 -0.0017
    3TYR    SC3  154  -0.212   3.632   3.395 -0.0692 -0.0331  0.1816
    1TYR     BB  155   3.328   5.751   4.898  0.0480 -0.0131  0.0008
    1TYR    SC1  156   3.405   5.794   4.615  0.1219 -0.2210 -0.1852
    1TYR    SC2  157   3.340   5.958   4.411 -0.0395 -0.0937 -0.0365
    1TYR    SC3  158   3.590   5.856   4.428  0.1216  0.2770 -0.0413
    2ARG     BB  159   3.566   5.758   5.081 -0.1069  0.0929  0.1693
    2ARG    SC1  160   3.551   5.870   5.342  0.1501 -0.1600  0.1091
    2ARG    SC2  161   3.475   5.928   5.647  0.0715 -0.0551 -0.2010
    3TYR     BB  162   3.853   5.622   4.992  0.1289 -0.0263 -0.0270
    3TYR    SC1  163   3.876   5.338   4.978  0.0581  0.0202 -0.2350
    3TYR    SC2  164   3.977   5.114   5.090 -0.0861  0.0264 -0.0885
    3TYR    SC3  165   3.962   5.135   4.822 -0.0083 -0.1111 -0.1047
    1TYR     BB  166   2.780   6.561   3.971 -0.0420  0.0364  0.2373
    1TYR    SC1  167   2.980   6.663   3.770 -0.1029  0.0543 -0.2968
    1TYR    SC2  168   3.201   6.578   3.640  0.0086 -0.0015 -0.0759
    1TYR    SC3  169   3.018   6.728   3.511  0.1639  0.0275 -0.2677
    2ARG     BB  170   2.795   6.319   4.153  0.3095  0.0557 -0.1461
    2ARG    SC1  171   2.676   6.442   4.461 -0.1331  0.0626  0.1858
    2ARG    SC2  172   2.338   6.317   4.406 -0.0982  0.2030 -0.0672
    3TYR     BB  173   2.819   6.010   4.231 -0.0648 -0.2726 -0.4159
    3TYR    SC1  174   2.906   5.788   4.020 -0.1157 -0.4361  0.1466
    3TYR    SC2  175   2.898   5.576   3.852 -0.0371 -0.0967 -0.3103
    3TYR    SC3  176   3.061   5.784   3.799 -0.2433  0.1642  0.0246
    1TYR     BB  177   4.410   6.238   3.526  0.1728 -0.2196  0.0977
    1TYR    SC1  178   4.623   6.451   3.650  0.0416  0.1185  0.2064
    1TYR    SC2  179   4.816   6.611   3.752 -0.2040  0.3473  0.3314
    1TYR    SC3  180   4.853   6.490   3.513  0.0365  0.4954  0.2892
    2ARG     BB  181   4.288   6.389   3.286 -0.0164  0.2031 -0.1535
    2ARG    SC1  182   4.538   6.468   3.135  0.2489  0.0065 -0.1170
    2ARG    SC2  183   4.663   6.753   3.028  0.0577  0.1299 -0.0193
    3TYR     BB  184   3.963   6.490   3.341 -0.0014  0.2903  0.0759
    3TYR    SC1  185   3.767   6.691   3.467  0.0569 -0.1492 -0.2342
    3TYR    SC2  186   3.536   6.824   3.509  0.2471  0.1029  0.0591
    3TYR    SC3  187   3.771   6.958   3.507  0.4047 -0.1652 -0.1166
    1TYR     BB  188   8.223   3.168   3.346 -0.2616  0.0996 -0.3146
    1TYR    SC1  189   8.223   3.391   3.160  0.1954  0.0227 -0.0029
    1TYR    SC2  190   8.222   3.632   3.041 -0.0793  0.1455  0.2337
    1TYR    SC3  191   8.166   3.411   2.897  0.0997  0.2269  0.0317
    2ARG     BB  192   8.517   2.990   3.331 -0.1297 -0.0605 -0.0628
    2ARG    SC1  193   8.706   3.264   3.210 -0.1073  0.3483  0.1682
    2ARG    SC2  194   8.677   3.397   2.906  0.3348  0.2053 -0.4268
    3TYR     BB  195   8.507   2.631   3.307  0.1271 -0.1588 -0.1091
    3TYR    SC1  196   8.644   2.558   3.543 -0.2861  0.0295 -0.0580
    3TYR    SC2  197   8.730   2.605   3.795 -0.0778 -0.0894 -0.1032
    3TYR    SC3  198   8.900   2.504   3.611 -0.1680  0.1877 -0.3509
    1TYR     BB  199   5.426   2.759   3.255  0.2071  0.0158 -0.1705
    1TYR    SC1  200   5.632   2.930   3.373  0.1579 -0.0876 -0.2836
    1TYR    SC2  201   5.705   3.184   3.429 -0.0163 -0.0993  0.0292
    1TYR    SC3  202   5.892   2.999   3.368  0.1262  0.0651 -0.0402
    2ARG     BB  203   5.484   2.385   3.273 -0.2178  0.1508  0.2620
    2ARG    SC1  204   5.465   2.326   2.957 -0.0366  0.4278 -0.1212
    2ARG    SC2  205   5.451   2.144   2.708 -0.2114 -0.0069 -0.0834
    3TYR     BB  206   5.300   2.210   3.441 -0.1339 -0.1838 -0.1917
    3TYR    SC1  207   5.113   2.428   3.603  0.0099  0.1982 -0.0260
    3TYR    SC2  208   5.077   2.675   3.704 -0.0302  0.0680  0.2937
    3TYR    SC3  209   4.878   2.493   3.717 -0.0758  0.0749 -0.1283
    1TYR     BB  210   0.438   2.308   3.859  0.0576 -0.5946  0.2444
    1TYR    SC1  211   0.173   2.430   3.769  0.0563  0.0842  0.1648
    1TYR    SC2  212   0.009   2.639   3.821 -0.1907 -0.0114 -0.1816
    1TYR    SC3  213  -0.057   2.460   3.630  0.2945 -0.0921 -0.2907
    2ARG     BB  214   0.365   2.043   4.044 -0.3454 -0.0276  0.0495
    2ARG    SC1  215   0.412   1.799   3.867 -0.1729 -0.1524  0.2691
    2ARG    SC2  216   0.466   1.486   3.838  0.3151  0.0032 -0.1625
    3TYR     BB  217   0.575   2.065   4.377  0.1652  0.3043  0.3129
    3TYR    SC1  218   0.529   2.314   4.569  0.2247 -0.1779  0.2509
    3TYR    SC2  219   0.668   2.489   4.720 -0.0087 -0.0698  0.3450
    3TYR    SC3  220   0.399   2.507   4.706  0.0075 -0.0497 -0.1178
    1TYR     BB  221  -0.295   2.634   5.254 -0.0395 -0.1853 -0.0556
    1TYR    SC1  222  -0.526   2.628   5.457  0.0943 -0.2563 -0.0045
    1TYR    SC2  223  -0.748   2.641   5.611  0.0219 -0.5168 -0.0807
    1TYR    SC3  224  -0.561   2.836   5.628 -0.1751 -0.3317  0.0383
    2ARG     BB  225  -0.048   2.859   5.231  0.0386 -0.0124 -0.1010
    2ARG    SC1  226  -0.126   3.104   5.382  0.3923  0.0228 -0.1637
    2ARG    SC2  227  -0.408   3.269   5.432  0.5058  0.1468  0.1780
    3TYR     BB  228   0.159   2.842   5.081 -0.2009  0.0396 -0.0703
    3TYR    SC1  229   0.423   2.981   5.020 -0.1658 -0.0806 -0.2688
    3TYR    SC2  230   0.522   2.999   4.770  0.0831 -0.2000 -0.1832
    3TYR    SC3  231   0.687   3.024   4.982 -0.1178 -0.1451 -0.0298
    1TYR     BB  232   3.062   3.650   2.448  0.5425 -0.2103  0.1000
    1TYR    SC1  233   2.997   3.769   2.162  0.0893 -0.0579  0.0894
    1TYR    SC2  234   3.006   4.022   2.069 -0.0716  0.0034  0.2324
    1TYR    SC3  235   2.832   3.844   1.963  0.0776 -0.0659  0.0960
    2ARG     BB  236   3.235   3.552   2.661  0.1107 -0.1476  0.1976
    2ARG    SC1  237   3.534   3.443   2.643 -0.0518  0.2131 -0.2662
    2ARG    SC2  238   3.764   3.238   2.551  0.2755  0.2537  0.0353
    3TYR     BB  239   3.123   3.639   2.932 -0.1058  0.1175  0.0677
    3TYR    SC1  240   3.296   3.423   3.137  0.1441  0.1881 -0.0444
    3TYR    SC2  241   3.356   3.320   3.380  0.1739  0.0152 -0.1237
    3TYR    SC3  242   3.527   3.288   3.173  0.0145 -0.0978 -0.2417
    1TYR     BB  243   0.402   3.299   3.538  0.0548 -0.2586 -0.1419
    1TYR    SC1  244   0.437   3.581   3.613 -0.2974 -0.2619  0.0497
    1TYR    SC2  245   0.366   3.835   3.666 -0.0141 -0.1379 -0.1334
    1TYR    SC3  246   0.627   3.770   3.647 -0.0616 -0.5333  0.3230
    2ARG     BB  247   0.326   3.086   3.327  0.0408  0.0106 -0.4715
    2ARG    SC1  248   0.335   3.097   3.036  0.0871 -0.1486 -0.0449
    2ARG    SC2  249   0.527   3.203   2.831  0.0693  0.1389  0.0107
    3TYR     BB  250   0.397   2.817   3.471  0.0585 -0.2507  0.4592
    3TYR    SC1  251   0.318   2.546   3.382  0.2128 -0.0214  0.1477
    3TYR    SC2  252   0.287   2.434   3.139 -0.2447 -0.0106  0.1915
    3TYR    SC3  253   0.411   2.297   3.336  0.0502 -0.0541 -0.0164
    1TYR     BB  254   1.766   3.121   4.101 -0.2193 -0.1040 -0.0057
    1TYR    SC1  255   1.696   2.843   4.059 -0.2235  0.2014 -0.2641
    1TYR    SC2  256   1.516   2.672   3.953 -0.1774 -0.0475  0.0422
    1TYR    SC3  257   1.768   2.589   4.003  0.0180  0.2803 -0.3286
    2ARG     BB  258   2.001   3.210   4.212  0.0484 -0.3653  0.1080
    2ARG    SC1  259   2.054   3.326   4.501 -0.0284 -0.0607  0.0226
    2ARG    SC2  260   2.101   3.271   4.812 -0.0195  0.3756 -0.2967
    3TYR     BB  261   2.309   3.223   4.093 -0.0024 -0.1089 -0.2508
    3TYR    SC1  262   2.462   2.946   4.120 -0.0109  0.1914  0.1337
    3TYR    SC2  263   2.552   2.726   4.248 -0.2659  0.1265  0.2063
    3TYR    SC3  264   2.651   2.791   4.005 -0.2067 -0.0838  0.1718
    1TYR     BB  265   2.154   2.667   3.193 -0.0200  0.1615  0.1384
    1TYR    SC1  266   2.117   2.372   3.406  0.2765  0.1199  0.1860
    1TYR    SC2  267   2.011   2.216   3.600  0.0631  0.0425  0.0120
    1TYR    SC3  268   2.271   2.291   3.613 -0.0237  0.3028  0.4923
    2ARG     BB  269   1.898   2.668   3.047  0.0293  0.1842  0.3356
    2ARG    SC1  270   1.780   2.346   3.032 -0.3088  0.2833  0.0126
    2ARG    SC2  271   1.713   2.121   2.806  0.0646 -0.1318 -0.0936
    3TYR     BB  272   1.697   2.897   3.028 -0.2658  0.3321  0.1092
    3TYR    SC1  273   1.813   3.117   3.209 -0.0924  0.1951 -0.1167
    3TYR    SC2  274   2.040   3.110   3.355 -0.0208 -0.1875 -0.2314
    3TYR    SC3  275   1.818   3.225   3.457  0.1699  0.0277 -0.0435
    1TYR     BB  276   5.909   2.661   3.020  0.4944  0.0702 -0.0309
    1TYR    SC1  277   5.926   2.384   3.045  0.1738  0.0088  0.1764
    1TYR    SC2  278   5.918   2.128   2.958 -0.0407 -0.0130  0.2532
    1TYR    SC3  279   6.106   2.205   3.137  0.3022 -0.0077 -0.0944
    2ARG     BB  280   6.202   2.781   3.040  0.4897 -0.3731  0.1197
    2ARG    SC1  281   6.326   2.630   2.798 -0.1730  0.0220 -0.0434
    2ARG    SC2  282   6.341   2.337   2.664 -0.2353 -0.1814  0.1994
    3TYR     BB  283   6.377   2.831   3.258  0.0388 -0.1524  0.0365
    3TYR    SC1  284   6.351   3.083   3.447  0.3589 -0.3793  0.2134
    3TYR    SC2  285   6.427   3.318   3.560  0.1343 -0.2084  0.0215
    3TYR    SC3  286   6.199   3.196   3.639  0.0492 -0.1604 -0.1441
    1TYR     BB  287   2.805   4.610   3.799  0.4028  0.1087 -0.0257
    1TYR    SC1  288   2.927   4.600   3.543 -0.0279  0.3788  0.0382
    1TYR    SC2  289   2.898   4.473   3.307  0.1961 -0.0981  0.2484
    1TYR    SC3  290   3.097   4.652   3.339  0.3755 -0.2796  0.1689
    2ARG     BB  291   2.783   4.391   4.012 -0.1203 -0.0240 -0.0168
    2ARG    SC1  292   2.977   4.404   4.272  0.0977  0.0289  0.0046
    2ARG    SC2  293   3.216   4.217   4.425  0.1512 -0.0387  0.1967
    3TYR     BB  294   2.558   4.205   4.073 -0.1033 -0.3604  0.0799
    3TYR    SC1  295   2.635   4.024   4.280  0.3070  0.1559  0.2017
    3TYR    SC2  296   2.790   3.916   4.474  0.0146 -0.1635  0.2687
    3TYR    SC3  297   2.549   4.020   4.535  0.0317 -0.0231  0.1101
    1TYR     BB  298   7.590   2.898   3.957  0.0322 -0.1362 -0.0057
    1TYR    SC1  299   7.365   3.121   3.999 -0.0997 -0.0305 -0.1060
    1TYR    SC2  300   7.175   3.301   3.930 -0.1495 -0.1295 -0.2344
    1TYR    SC3  301   7.103   3.053   4.011 -0.1099  0.0471  0.4213
    2ARG     BB  302   7.457   2.641   3.829 -0.0581  0.0606 -0.0457
    2ARG    SC1  303   7.723   2.446   3.772 -0.0504 -0.2141 -0.2343
    2ARG    SC2  304   7.789   2.121   3.747  0.3591 -0.0031  0.0210
    3TYR     BB  305   7.136   2.625   3.668 -0.0403 -0.2022 -0.1592
    3TYR    SC1  306   7.092   2.671   3.411  0.1145 -0.1627  0.0328
    3TYR    SC2  307   7.079   2.577   3.159 -0.0650 -0.1754  0.0452
    3TYR    SC3  308   6.946   2.803   3.226  0.2257 -0.0022  0.0573
    1TYR     BB  309  -0.542   2.679   4.374 -0.1291 -0.2041  0.0751
    1TYR    SC1  310  -0.531   2.609   4.030 -0.0137 -0.2110 -0.0214
    1TYR    SC2  311  -0.743   2.495   3.908 -0.0077  0.0676 -0.3080
    1TYR    SC3  312  -0.506   2.513   3.779  0.2115 -0.2742  0.0225
    2ARG     BB  313  -0.699   2.941   4.547  0.1670 -0.3081  0.2948
    2ARG    SC1  314  -0.903   2.813   4.702  0.1050 -0.0631  0.1557
    2ARG    SC2  315  -1.161   2.877   4.910 -0.0498  0.0779 -0.0457
    3TYR     BB  316  -0.665   3.247   4.542  0.1969 -0.1593  0.2891
    3TYR    SC1  317  -0.394   3.337   4.426 -0.0308  0.0734  0.3451
    3TYR    SC2  318  -0.151   3.425   4.349 -0.0975  0.0037  0.0403
    3TYR    SC3  319  -0.329   3.597   4.457  0.0158  0.0957  0.0829
    1TYR     BB  320   0.610   3.351   4.355 -0.3155  0.0407 -0.1676
    1TYR    SC1  321   0.807   3.530   4.470 -0.2797  0.0413  0.2288
    1TYR    SC2  322   1.037   3.626   4.573 -0.0948 -0.1109 -0.0309
    1TYR    SC3  323   0.824   3.788   4.547  0.0223  0.0669  0.0940
    2ARG     BB  324   0.477   3.523   4.153  0.1582  0.0094  0.0658
    2ARG    SC1  325   0.568   3.787   4.128  0.0408 -0.2980  0.1017
    2ARG    SC2  326   0.567   4.092   4.033  0.0268 -0.0180 -0.1387
    3TYR     BB  327   0.197   3.470   4.003  0.0199  0.0212 -0.0095
    3TYR    SC1  328   0.064   3.715   4.043 -0.3078 -0.1054 -0.0074
    3TYR    SC2  329  -0.141   3.870   4.124  0.1237  0.2814  0.4265
    3TYR    SC3  330   0.075   3.982   4.010  0.0584 -0.1335 -0.1662
    1TYR     BB  331   6.084   3.515   4.095  0.0922 -0.3325  0.1965
    1TYR    SC1  332   6.222   3.689   3.884  0.1533 -0.2721 -0.0867
    1TYR    SC2  333   6.225   3.757   3.623 -0.0605  0.1310  0.0053
    1TYR    SC3  334   6.452   3.771   3.769 -0.0259  0.3150 -0.0635
    2ARG     BB  335   6.051   3.626   4.437  0.3387 -0.0487 -0.1881
    2ARG    SC1  336   6.163   3.813   4.739  0.3590 -0.1060 -0.0389
    2ARG    SC2  337   6.336   4.070   4.749  0.5835  0.0429  0.1274
    3TYR     BB  338   5.764   3.599   4.613 -0.1659  0.0695 -0.2035
    3TYR    SC1  339   5.749   3.544   4.903 -0.2339 -0.1270  0.2687
    3TYR    SC2  340   5.655   3.495   5.150 -0.0392 -0.1418  0.3426
    3TYR    SC3  341   5.877   3.645   5.118 -0.1863  0.0453  0.1633
    1TYR     BB  342   3.809   4.171   3.327  0.0898  0.1162 -0.0218
    1TYR    SC1  343   3.555   4.260   3.215 -0.1533  0.0736  0.2616
    1TYR    SC2  344   3.285   4.246   3.216 -0.1537  0.0800  0.2691
    1TYR    SC3  345   3.409   4.448   3.088 -0.1478 -0.0223  0.1113
    2ARG     BB  346   3.998   4.451   3.229  0.0841  0.0547  0.0938
    2ARG    SC1  347   4.211   4.304   3.013 -0.0015 -0.0434 -0.1625
    2ARG    SC2  348   4.299   4.123   2.759  0.0753  0.1514  0.3712
    3TYR     BB  349   3.847   4.689   3.363 -0.1486  0.2088 -0.0782
    3TYR    SC1  350   3.594   4.822   3.227  0.0469 -0.0889  0.0351
    3TYR    SC2  351   3.418   4.911   3.045  0.2340 -0.0534 -0.1317
    3TYR    SC3  352   3.369   4.946   3.307 -0.0210 -0.0737 -0.1737
    1TYR     BB  353   3.686   5.201   3.798  0.0193 -0.0353  0.0652
    1TYR    SC1  354   3.900   5.152   3.558 -0.2028  0.1443  0.0432
    1TYR    SC2  355   4.072   5.162   3.350 -0.1909 -0.1136  0.0368
    1TYR    SC3  356   3.811   5.222   3.312 -0.1240  0.1897  0.0275
    2ARG     BB  357   3.441   4.916   3.867 -0.2257  0.1505 -0.1768
    2ARG    SC1  358   3.712   4.714   3.925 -0.1398 -0.1889 -0.0741
    2ARG    SC2  359   3.859   4.432   3.796  0.0554 -0.0889  0.0653
    3TYR     BB  360   3.215   4.899   3.899  0.3845  0.0160 -0.3964
    3TYR    SC1  361   3.081   4.917   4.175  0.2647  0.1536 -0.0117
    3TYR    SC2  362   2.920   4.873   4.387  0.1613 -0.0827 -0.1339
    3TYR    SC3  363   3.062   5.103   4.370 -0.0353  0.0586  0.0561
    1TYR     BB  364  -0.575   2.503   4.907  0.1940  0.0645  0.0187
    1TYR    SC1  365  -0.823   2.506   5.117  0.0873 -0.3226  0.0195
    1TYR    SC2  366  -1.010   2.550   5.307 -0.0288  0.2649 -0.2045
    1TYR    SC3  367  -1.070   2.401   5.091 -0.2124  0.3723 -0.2296
    2ARG     BB  368  -0.457   2.214   4.860  0.1398  0.1864 -0.2233
    2ARG    SC1  369  -0.461   2.225   4.538  0.0059 -0.0051 -0.3651
    2ARG    SC2  370  -0.613   2.168   4.273 -0.1250 -0.2901  0.0232
    3TYR     BB  371  -0.453   2.067   5.170 -0.0209  0.1009 -0.0078
    3TYR    SC1  372  -0.728   2.108   5.294  0.2458  0.0078  0.1319
    3TYR    SC2  373  -0.788   2.215   5.533  0.2998  0.1365  0.0884
    3TYR    SC3  374  -0.946   2.023   5.428  0.3042  0.0427  0.2495
    1TYR     BB  375   8.014   4.157   3.900  0.0336 -0.0187 -0.1711
    1TYR    SC1  376   8.255   4.034   3.760 -0.0064 -0.0256  0.2437
    1TYR    SC2  377   8.472   3.918   3.870  0.0159 -0.2063  0.0185
    1TYR    SC3  378   8.502   4.106   3.679 -0.0142 -0.5308 -0.3213
    2ARG     BB  379   7.935   3.977   4.106  0.0203  0.2826  0.1816
    2ARG    SC1  380   8.120   4.053   4.399  0.0477 -0.1314 -0.1979
    2ARG    SC2  381   8.410   3.947   4.463 -0.3156  0.1664 -0.1560
    3TYR     BB  382   8.088   3.662   4.056  0.0383 -0.3157 -0.1830
    3TYR    SC1  383   8.147   3.487   4.284 -0.2487  0.1243 -0.4828
    3TYR    SC2  384   8.093   3.545   4.541  0.3207  0.1544 -0.3545
    3TYR    SC3  385   8.113   3.288   4.462  0.1696  0.1453 -0.3660
    1TYR     BB  386   3.539   6.235   3.557  0.5259 -0.2160 -0.0092
    1TYR    SC1  387   3.358   6.145   3.744  0.0923  0.0074 -0.1194
    1TYR    SC2  388   3.241   6.257   3.959 -0.1363  0.0764 -0.2764
    1TYR    SC3  389   3.388   6.033   3.988 -0.1754  0.0767 -0.0510
    2ARG     BB  390   3.416   6.386   3.243  0.0887  0.0586  0.2780
    2ARG    SC1  391   3.583   6.535   3.038  0.1583  0.0695 -0.0158
    2ARG    SC2  392   3.733   6.779   2.917 -0.1092 -0.1248 -0.1487
    3TYR     BB  393   3.127   6.359   3.193 -0.2415  0.0768 -0.2353
    3TYR    SC1  394   2.959   6.244   3.400 -0.1202  0.0650  0.1097
    3TYR    SC2  395   2.719   6.299   3.509 -0.1717 -0.3663  0.2384
    3TYR    SC3  396   2.916   6.195   3.661  0.0975 -0.0401  0.1289
    1TYR     BB  397   1.313   2.473   3.237 -0.0243 -0.3918  0.1585
    1TYR    SC1  398   1.283   2.731   3.049 -0.3288  0.0937  0.0226
    1TYR    SC2  399   1.180   2.870   2.842  0.0441  0.5015  0.0950
    1TYR    SC3  400   1.234   2.994   3.076  0.0840  0.1551  0.2786
    2ARG     BB  401   1.584   2.526   3.455  0.0344 -0.1108  0.1679
    2ARG    SC1  402   1.552   2.261   3.667  0.1228  0.0930 -0.0083
    2ARG    SC2  403   1.446   1.996   3.778  0.0634 -0.1213  0.0227
    3TYR     BB  404   1.739   2.754   3.512 -0.0962 -0.1128 -0.0025
    3TYR    SC1  405   1.986   2.743   3.634 -0.2788 -0.1315  0.0690
    3TYR    SC2  406   2.084   2.965   3.754  0.0548 -0.2188 -0.0293
    3TYR    SC3  407   2.171   2.721   3.830 -0.0638 -0.2992 -0.1461
    1TYR     BB  408   5.965   2.843   2.576 -0.0825  0.1166 -0.0884
    1TYR    SC1  409   5.747   3.047   2.689 -0.2108  0.0128 -0.1342
    1TYR    SC2  410   5.569   3.244   2.734 -0.6094 -0.3578 -0.0039
    1TYR    SC3  411   5.665   3.100   2.941  0.2074  0.1053 -0.0052
    2ARG     BB  412   5.832   2.468   2.526 -0.1767  0.0507  0.1108
    2ARG    SC1  413   5.989   2.378   2.258  0.1616 -0.1466  0.0470
    2ARG    SC2  414   6.243   2.257   2.064  0.0863 -0.2971  0.0209
    3TYR     BB  415   5.558   2.537   2.450  0.1544  0.2630 -0.1495
    3TYR    SC1  416   5.431   2.737   2.617  0.0265 -0.1352  0.3329
    3TYR    SC2  417   5.272   2.791   2.829 -0.0982  0.0476  0.1973
    3TYR    SC3  418   5.278   2.960   2.618 -0.1249 -0.2274 -0.0321
    1TYR     BB  419   3.015   5.235   4.939 -0.0760  0.2948 -0.1648
    1TYR    SC1  420   3.057   4.930   4.882 -0.4240  0.0635 -0.0156
    1TYR    SC2  421   3.091   4.707   5.031 -0.0948 -0.0634 -0.2656
    1TYR    SC3  422   2.954   4.695   4.798  0.1075 -0.0597 -0.3877
    2ARG     BB  423   3.005   5.385   4.813 -0.0563 -0.0166 -0.0947
    2ARG    SC1  424   2.786   5.632   4.943 -0.0587 -0.4328 -0.1642
    2ARG    SC2  425   2.571   5.729   5.140 -0.0007 -0.1680  0.0862
    3TYR     BB  426   2.974   5.614   4.514 -0.1103  0.1144 -0.1304
    3TYR    SC1  427   3.201   5.568   4.235 -0.3491 -0.0050  0.0387
    3TYR    SC2  428   3.434   5.624   4.108 -0.3642  0.1783  0.0895
    3TYR    SC3  429   3.310   5.387   4.065 -0.0489 -0.0219  0.2399
    1TYR     BB  430   0.815   3.016   3.343  0.3472  0.0306 -0.1107
    1TYR    SC1  431   0.785   2.819   3.168 -0.1298  0.2616  0.0883
    1TYR    SC2  432   0.833   2.570   3.076 -0.1665  0.2482  0.1052
    1TYR    SC3  433   0.700   2.747   2.922  0.2642  0.4084 -0.1004
    2ARG     BB  434   0.855   3.319   3.336 -0.1144 -0.1301 -0.0357
    2ARG    SC1  435   0.683   3.512   3.159 -0.1224  0.1944  0.0290
    2ARG    SC2  436   0.637   3.767   3.099  0.0075 -0.0633 -0.0319
    3TYR     BB  437   1.100   3.426   3.477 -0.0275  0.0316 -0.3356
    3TYR    SC1  438   1.352   3.380   3.268  0.4203 -0.2500  0.3572
    3TYR    SC2  439   1.568   3.538   3.231  0.2211 -0.0427  0.0128
    3TYR    SC3  440   1.471   3.391   3.026  0.0426 -0.1471  0.1679
    1TYR     BB  441  -0.190   3.164   3.082 -0.2431  0.0256 -0.0294
    1TYR    SC1  442  -0.290   3.410   2.970 -0.1573  0.0642  0.0918
    1TYR    SC2  443  -0.435   3.564   2.801 -0.1763  0.1775  0.2093
    1TYR    SC3  444  -0.279   3.680   2.989  0.1041  0.0594  0.0566
    2ARG     BB  445  -0.168   2.956   2.765 -0.0713 -0.0258  0.1684
    2ARG    SC1  446  -0.377   2.987   2.520 -0.0614  0.0453  0.1035
    2ARG    SC2  447  -0.663   2.836   2.593  0.1009  0.3211  0.0397
    3TYR     BB  448   0.025   2.838   2.771 -0.3375 -0.0898  0.0587
    3TYR    SC1  449   0.298   2.733   2.656  0.2619 -0.1519 -0.2003
    3TYR    SC2  450   0.511   2.642   2.518  0.0035 -0.4681 -0.4095
    3TYR    SC3  451   0.404   2.491   2.714  0.3900 -0.0096  0.1967
    1TYR     BB  452   6.248   4.595   3.464  0.1157  0.2207  0.0240
    1TYR    SC1  453   6.187   4.938   3.355  0.2001 -0.0083 -0.2074
    1TYR    SC2  454   5.995   4.966   3.166  0.1430 -0.0706 -0.1590
    1TYR    SC3  455   6.179   5.160   3.201 -0.2170  0.2379  0.1408
    2ARG     BB  456   6.005   4.633   3.703  0.0558  0.2230 -0.2482
    2ARG    SC1  457   5.705   4.661   3.593 -0.3383  0.1484  0.1672
    2ARG    SC2  458   5.579   4.703   3.279  0.4166  0.2299 -0.0171
    3TYR     BB  459   5.932   4.625   4.016 -0.1141 -0.1660 -0.0877
    3TYR    SC1  460   6.152   4.614   4.206 -0.2165 -0.1818 -0.0851
    3TYR    SC2  461   6.173   4.522   4.460 -0.4057  0.0627  0.0235
    3TYR    SC3  462   6.332   4.724   4.376 -0.1306 -0.2162 -0.1525
    1TYR     BB  463   6.183   3.298   4.847  0.0862 -0.1573  0.1240
    1TYR    SC1  464   6.456   3.381   4.740 -0.0984  0.3957 -0.1613
    1TYR    SC2  465   6.627   3.589   4.748  0.2844  0.0917 -0.0635
    1TYR    SC3  466   6.698   3.360   4.623 -0.0644 -0.0397 -0.0342
    2ARG     BB  467   6.275   3.306   5.179 -0.1233 -0.0180 -0.0641
    2ARG    SC1  468   6.358   3.668   5.239 -0.0027  0.2720 -0.0297
    2ARG    SC2  469   6.497   3.693   5.492  0.1499  0.2069 -0.0440
    3TYR     BB  470   6.039   3.251   5.398 -0.1582 -0.0421 -0.0547
    3TYR    SC1  471   5.840   3.112   5.247  0.0687 -0.3045  0.1994
    3TYR    SC2  472   5.857   2.970   5.019 -0.3200  0.0971 -0.1036
    3TYR    SC3  473   5.666   2.911   5.200  0.0808 -0.3182  0.2126
    1TYR     BB  474   7.519   2.702   3.288  0.0937 -0.2141 -0.2758
    1TYR    SC1  475   7.547   2.423   3.204  0.2549 -0.1148 -0.1493
    1TYR    SC2  476   7.591   2.181   3.315 -0.1147 -0.1671 -0.1013
    1TYR    SC3  477   7.543   2.201   3.050 -0.0371 -0.1398 -0.1134
    2ARG     BB  478   7.700   2.848   3.393 -0.1193 -0.0567 -0.0405
    2ARG    SC1  479   7.979   2.725   3.351 -0.0187  0.0017 -0.2890
    2ARG    SC2  480   8.029   2.538   3.109 -0.2077 -0.1227 -0.2045
    3TYR     BB  481   7.792   3.141   3.576 -0.0813  0.2408  0.2558
    3TYR    SC1  482   7.981   3.183   3.791  0.0958  0.3485 -0.0843
    3TYR    SC2  483   7.963   3.137   4.055  0.0229 -0.2602 -0.1765
    3TYR    SC3  484   8.203   3.193   3.945  0.0420  0.0783  0.0183
    1TYR     BB  485   1.500   3.528   3.789  0.0069 -0.0560 -0.1895
    1TYR    SC1  486   1.576   3.615   4.076  0.1666  0.0604 -0.2841
    1TYR    SC2  487   1.726   3.666   4.295 -0.1391 -0.0398 -0.0403
    1TYR    SC3  488   1.475   3.763   4.279 -0.1873 -0.1920 -0.2649
    2ARG     BB  489   1.458   3.841   3.682  0.0424 -0.3491 -0.0206
    2ARG    SC1  490   1.381   4.109   3.841 -0.1074 -0.0153 -0.1696
    2ARG    SC2  491   1.438   4.326   4.064 -0.0737  0.5022 -0.0023
    3TYR     BB  492   1.612   3.971   3.460  0.3173  0.0766  0.4442
    3TYR    SC1  493   1.445   4.202   3.270 -0.0586  0.5085 -0.4414
    3TYR    SC2  494   1.246   4.264   3.097 -0.3634  0.4065 -0.1431
    3TYR    SC3  495   1.236   4.355   3.351 -0.2863 -0.0011  0.0156
    1TYR     BB  496   2.988   3.576   3.569 -0.1152 -0.0137  0.1934
    1TYR    SC1  497   2.863   3.440   3.279 -0.1525 -0.1618  0.1870
    1TYR    SC2  498   2.913   3.240   3.104  0.0816 -0.0830  0.1592
    1TYR    SC3  499   2.675   3.369   3.098  0.1125 -0.0314 -0.1531
    2ARG     BB  500   3.099   3.831   3.436 -0.3623  0.0204 -0.0733
    2ARG    SC1  501   3.409   3.805   3.481 -0.1737 -0.1086 -0.2301
    2ARG    SC2  502   3.553   3.902   3.760  0.2193 -0.0040 -0.0697
    3TYR     BB  503   2.965   4.067   3.572  0.2051  0.2591  0.0527
    3TYR    SC1  504   3.187   4.228   3.726 -0.1828  0.1373 -0.0003
    3TYR    SC2  505   3.380   4.375   3.609 -0.2336  0.0882 -0.1495
    3TYR    SC3  506   3.365   4.362   3.878  0.2539 -0.2713 -0.1247
    1TYR     BB  507   6.713   2.802   4.234 -0.3357  0.0338  0.0479
    1TYR    SC1  508   6.691   3.084   4.107  0.2082 -0.0386 -0.2648
    1TYR    SC2  509   6.552   3.277   3.978  0.0750  0.0860  0.0522
    1TYR    SC3  510   6.710   3.341   4.188 -0.0652 -0.1624  0.2395
    2ARG     BB  511   7.035   2.516   4.248  0.0639  0.1088  0.1045
    2ARG    SC1  512   6.856   2.358   4.045 -0.0493  0.0183  0.0094
    2ARG    SC2  513   6.745   2.231   3.796 -0.0352 -0.0510 -0.0526
    3TYR     BB  514   7.294   2.648   4.255  0.0339 -0.1971  0.0259
    3TYR    SC1  515   7.496   2.662   4.481  0.1735 -0.0303 -0.0990
    3TYR    SC2  516   7.436   2.701   4.742 -0.3305 -0.2447 -0.1669
    3TYR    SC3  517   7.622   2.519   4.673 -0.2279 -0.2222  0.0380
    1TYR     BB  518   0.635   3.650   2.630  0.1246  0.2309  0.1757
    1TYR    SC1  519   0.485   3.769   2.398 -0.1391 -0.1399  0.1636
    1TYR    SC2  520   0.413   3.991   2.261 -0.0409 -0.0971  0.1803
    1TYR    SC3  521   0.241   3.784   2.284 -0.0756 -0.0855  0.0325
    2ARG     BB  522   0.936   3.777   2.732 -0.0839 -0.1492  0.1228
    2ARG    SC1  523   1.094   4.095   2.667 -0.0750 -0.1832 -0.0066
    2ARG    SC2  524   1.160   4.184   2.342  0.1033 -0.1027 -0.1189
    3TYR     BB  525   1.134   3.724   2.953 -0.0198  0.0831 -0.1043
    3TYR    SC1  526   1.426   3.871   2.928  0.2517 -0.1666 -0.2182
    3TYR    SC2  527   1.571   4.056   2.794  0.0845 -0.0212 -0.2029
    3TYR    SC3  528   1.696   3.873   2.950  0.2384  0.2748  0.0346
    1TYR     BB  529   3.487   3.886   2.360 -0.0972  0.3666  0.4080
    1TYR    SC1  530   3.750   3.804   2.365 -0.0894  0.0202 -0.2391
    1TYR    SC2  531   3.959   3.863   2.207  0.0093  0.0276 -0.1086
    1TYR    SC3  532   4.001   3.795   2.464 -0.1461 -0.0169 -0.0941
    2ARG     BB  533   3.352   4.140   2.425 -0.1012 -0.3746  0.0110
    2ARG    SC1  534   3.309   4.367   2.208  0.2813 -0.0224  0.1684
    2ARG    SC2  535   3.297   4.368   1.908  0.0896  0.0278  0.1310
    3TYR     BB  536   3.246   4.140   2.674  0.3381 -0.2185 -0.3095
    3TYR    SC1  537   3.491   3.987   2.867 -0.0666 -0.0052  0.2334
    3TYR    SC2  538   3.567   3.771   3.009 -0.0606 -0.0426  0.1735
    3TYR    SC3  539   3.753   3.927   2.893 -0.0669 -0.0298  0.1806
    1TYR     BB  540   1.785   4.425   3.573  0.0239  0.3585  0.1943
    1TYR    SC1  541   1.876   4.217   3.744 -0.1016 -0.0962 -0.2547
    1TYR    SC2  542   2.100   4.097   3.835 -0.0515  0.1448 -0.0481
    1TYR    SC3  543   1.859   3.999   3.901 -0.0102  0.0817  0.0100
    2ARG     BB  544   1.785   4.578   3.288  0.0238 -0.1758 -0.1179
    2ARG    SC1  545   1.886   4.889   3.408  0.1449  0.0204  0.1320
    2ARG    SC2  546   1.852   4.965   3.733 -0.2697 -0.0547 -0.1976
    3TYR     BB  547   1.797   4.414   2.975 -0.2033  0.1300  0.0241
    3TYR    SC1  548   1.530   4.496   2.823 -0.3327 -0.0555 -0.2367
    3TYR    SC2  549   1.410   4.566   2.591 -0.2284  0.7352 -0.0855
    3TYR    SC3  550   1.304   4.643   2.826 -0.2735  0.0384  0.1512
    1TYR     BB  551   6.391   4.244   3.847 -0.2074 -0.0073  0.0929
    1TYR    SC1  552   6.564   4.322   4.067 -0.0833  0.0695  0.1992
    1TYR    SC2  553   6.805   4.345   4.186 -0.1555  0.3597  0.2993
    1TYR    SC3  554   6.582   4.331   4.336 -0.1886 -0.3010  0.2260
    2ARG     BB  555   6.100   4.162   3.971 -0.0858 -0.1009  0.0916
    2ARG    SC1  556   5.931   4.131   3.746  0.0759 -0.1702  0.0543
    2ARG    SC2  557   5.934   4.131   3.423 -0.1986  0.0170  0.0321
    3TYR     BB  558   6.143   4.024   4.191  0.3391 -0.3117 -0.1176
    3TYR    SC1  559   6.390   3.916   4.263  0.1192  0.2894 -0.2574
    3TYR    SC2  560   6.523   3.682   4.285 -0.1658  0.1541  0.2104
    3TYR    SC3  561   6.656   3.907   4.217  0.1157 -0.1300 -0.2477
    1TYR     BB  562   3.468   5.307   4.583 -0.0255 -0.2882  0.0041
    1TYR    SC1  563   3.511   5.132   4.803 -0.0834 -0.1760 -0.1403
    1TYR    SC2  564   3.525   4.901   4.943  0.1641 -0.0413  0.0684
    1TYR    SC3  565   3.469   5.134   5.069 -0.1153  0.0158 -0.1446
    2ARG     BB  566   3.709   5.299   4.370  0.1294 -0.0683 -0.1738
    2ARG    SC1  567   3.925   5.496   4.452 -0.1020 -0.0414  0.3032
    2ARG    SC2  568   4.205   5.449   4.576  0.0808 -0.0857 -0.2799
    3TYR     BB  569   3.818   5.004   4.372  0.1558 -0.0160 -0.0336
    3TYR    SC1  570   3.577   4.821   4.448 -0.0659  0.1984 -0.6389
    3TYR    SC2  571   3.339   4.761   4.560  0.1785 -0.2171 -0.3031
    3TYR    SC3  572   3.414   4.642   4.329  0.0674 -0.0835 -0.4109
    1TYR     BB  573   2.234   4.393   2.642  0.3854 -0.2604  0.0271
    1TYR    SC1  574   2.021   4.625   2.583 -0.1747 -0.0010 -0.1893
    1TYR    SC2  575   2.031   4.824   2.766 -0.0363  0.0367 -0.2366
    1TYR    SC3  576   1.799   4.766   2.643 -0.1799 -0.1212  0.0939
    2ARG     BB  577   2.178   4.109   2.710  0.1193  0.1628  0.3811
    2ARG    SC1  578   2.171   4.018   3.010 -0.0670 -0.0748 -0.1257
    2ARG    SC2  579   2.079   4.102   3.309 -0.1722 -0.1936  0.0857
    3TYR     BB  580   2.005   3.934   2.565 -0.1875 -0.0518 -0.0991
    3TYR    SC1  581   2.059   3.645   2.560 -0.2542 -0.1903  0.3743
    3TYR    SC2  582   2.221   3.430   2.564 -0.0031 -0.0328 -0.1613
    3TYR    SC3  583   2.004   3.433   2.403 -0.1388  0.0338  0.0178
    1TYR     BB  584  -1.013   2.348   4.615  0.0214  0.0525 -0.2443
    1TYR    SC1  585  -0.934   2.114   4.755  0.2929 -0.0515 -0.1824
    1TYR    SC2  586  -1.020   1.962   4.963  0.0685  0.3125  0.0032
    1TYR    SC3  587  -0.813   1.879   4.811 -0.1802 -0.2784 -0.0422
    2ARG     BB  588  -1.322   2.443   4.656 -0.4941  0.0758 -0.0689
    2ARG    SC1  589  -1.465   2.210   4.696  0.1693 -0.0323 -0.1959
    2ARG    SC2  590  -1.678   2.103   4.451 -0.0327 -0.0390 -0.2574
    3TYR     BB  591  -1.417   2.693   4.515  0.1520  0.1723  0.1002
    3TYR    SC1  592  -1.249   2.701   4.298 -0.1660 -0.3827 -0.0357
    3TYR    SC2  593  -1.023   2.775   4.171 -0.1089 -0.3180  0.1018
    3TYR    SC3  594  -1.166   2.565   4.079 -0.0360 -0.3107 -0.0320
    1TYR     BB  595   7.710   3.369   3.113  0.0410 -0.3417  0.2065
    1TYR    SC1  596   7.671   3.677   2.967 -0.0607  0.0795 -0.0519
    1TYR    SC2  597   7.733   3.940   2.942 -0.0872  0.0774 -0.1463
    1TYR    SC3  598   7.500   3.846   2.841 -0.0407  0.0023 -0.1855
    2ARG     BB  599   7.521   3.118   3.002 -0.1829  0.0311  0.0183
    2ARG    SC1  600   7.785   2.925   2.918  0.0792 -0.0293 -0.0490
    2ARG    SC2  601   7.851   2.730   2.639 -0.0128 -0.2115  0.0573
    3TYR     BB  602   7.283   2.909   2.855 -0.1616  0.3257  0.0899
    3TYR    SC1  603   7.408   2.622   2.771  0.0584  0.3355 -0.1179
    3TYR    SC2  604   7.297   2.377   2.747 -0.0055  0.3210  0.2509
    3TYR    SC3  605   7.525   2.435   2.615 -0.0843  0.1260  0.0193
    1TYR     BB  606  -0.047   3.098   3.670 -0.0748  0.1122 -0.4721
    1TYR    SC1  607  -0.120   2.866   3.442 -0.2007  0.0862  0.0748
    1TYR    SC2  608  -0.358   2.755   3.380 -0.2141 -0.0215  0.3031
    1TYR    SC3  609  -0.138   2.689   3.239 -0.3239  0.1198  0.0556
    2ARG     BB  610  -0.189   3.137   3.926 -0.1968 -0.1335 -0.0910
    2ARG    SC1  611  -0.341   3.427   3.899  0.0424 -0.1349  0.0616
    2ARG    SC2  612  -0.569   3.613   3.978  0.2006  0.0728  0.1500
    3TYR     BB  613  -0.214   2.933   4.139  0.0735 -0.3255 -0.1077
    3TYR    SC1  614  -0.037   2.945   4.373  0.0258 -0.1898 -0.3587
    3TYR    SC2  615   0.168   2.885   4.537 -0.2776 -0.1882  0.0422
    3TYR    SC3  616   0.171   3.114   4.395 -0.0178 -0.1759  0.0614
    1TYR     BB  617   7.279   3.272   4.921  0.2749  0.0655  0.2048
    1TYR    SC1  618   6.971   3.298   4.969 -0.2466 -0.1057 -0.1418
    1TYR    SC2  619   6.719   3.249   5.050 -0.2582  0.1660  0.0045
    1TYR    SC3  620   6.837   3.484   5.112  0.0221  0.0554 -0.0876
    2ARG     BB  621   7.546   3.221   4.735 -0.4319 -0.1031 -0.2431
    2ARG    SC1  622   7.791   3.287   4.864 -0.2211 -0.4404  0.0974
    2ARG    SC2  623   7.999   3.519   5.049 -0.1565 -0.2062 -0.0078
    3TYR     BB  624   7.623   3.132   4.415 -0.1845  0.0665 -0.0957
    3TYR    SC1  625   7.659   3.395   4.257  0.0285  0.2828 -0.0165
    3TYR    SC2  626   7.672   3.457   3.994  0.2237  0.0106 -0.0766
    3TYR    SC3  627   7.457   3.529   4.139  0.2964  0.5352 -0.2073
    1TYR     BB  628   0.919   3.223   5.449  0.0927 -0.1671  0.0681
    1TYR    SC1  629   0.637   3.162   5.436  0.1026 -0.0574  0.2501
    1TYR    SC2  630   0.387   3.249   5.489 -0.0052  0.0153 -0.2884
    1TYR    SC3  631   0.432   2.986   5.447  0.0601 -0.0275  0.0124
    2ARG     BB  632   1.140   3.178   5.175 -0.1382  0.0476 -0.1417
    2ARG    SC1  633   1.338   2.907   5.284 -0.1073 -0.3170 -0.2107
    2ARG    SC2  634   1.662   2.855   5.364 -0.0879  0.1006 -0.0436
    3TYR     BB  635   1.123   3.331   4.961  0.0599  0.3023 -0.2240
    3TYR    SC1  636   0.828   3.480   4.974  0.2585 -0.1841  0.1540
    3TYR    SC2  637   0.598   3.494   4.833  0.2601  0.0936  0.1732
    3TYR    SC3  638   0.591   3.463   5.102  0.2495 -0.0611  0.1557
    1TYR     BB  639   7.196   3.695   4.744 -0.2730  0.3243  0.1071
    1TYR    SC1  640   7.470   3.706   4.639 -0.2769  0.1037 -0.1209
    1TYR    SC2  641   7.661   3.793   4.470 -0.1091 -0.4053 -0.2182
    1TYR    SC3  642   7.709   3.784   4.736 -0.2856  0.1658 -0.1495
    2ARG     BB  643   7.062   3.660   4.452  0.0799 -0.0144  0.0176
    2ARG    SC1  644   7.135   3.345   4.434 -0.1481  0.1053 -0.1212
    2ARG    SC2  645   7.103   3.053   4.501  0.0269 -0.3301  0.0362
    3TYR     BB  646   7.166   3.959   4.226 -0.0535  0.1944  0.1084
    3TYR    SC1  647   7.383   3.977   4.005 -0.1861  0.5192 -0.6034
    3TYR    SC2  648   7.525   3.846   3.818 -0.0196  0.2382 -0.2910
    3TYR    SC3  649   7.534   4.115   3.830  0.6705  0.2335 -0.1596
    1TYR     BB  650   6.272   1.874   4.723 -0.3400 -0.2770  0.0073
    1TYR    SC1  651   6.080   1.642   4.731  0.2960 -0.1964  0.1361
    1TYR    SC2  652   5.981   1.391   4.735 -0.2957  0.0145 -0.0005
    1TYR    SC3  653   5.933   1.551   4.523  0.3769  0.1444 -0.0791
    2ARG     BB  654   6.082   2.264   4.729 -0.1631  0.1286  0.2082
    2ARG    SC1  655   5.811   2.137   4.616 -0.1477  0.1883 -0.0610
    2ARG    SC2  656   5.519   2.129   4.740  0.0053  0.2067 -0.0117
    3TYR     BB  657   6.064   2.473   5.015  0.0240  0.0689  0.0538
    3TYR    SC1  658   6.240   2.288   5.180 -0.2829 -0.0576  0.1118
    3TYR    SC2  659   6.467   2.278   5.326 -0.1160 -0.2120 -0.1478
    3TYR    SC3  660   6.391   2.065   5.179 -0.3877 -0.1315 -0.1316
    1TYR     BB  661   6.531   2.007   2.982 -0.2986  0.1464  0.0611
    1TYR    SC1  662   6.568   2.217   3.194 -0.1110  0.2248 -0.2114
    1TYR    SC2  663   6.714   2.399   3.330 -0.0381 -0.0114  0.0359
    1TYR    SC3  664   6.452   2.366   3.388 -0.0696  0.0637 -0.0604
    2ARG     BB  665   6.639   1.732   2.992 -0.0289 -0.0438  0.4992
    2ARG    SC1  666   6.984   1.663   2.984  0.0805  0.0889 -0.3193
    2ARG    SC2  667   7.229   1.655   3.126 -0.1740 -0.4340 -0.1130
    3TYR     BB  668   6.490   1.438   3.140  0.0877 -0.3667 -0.1864
    3TYR    SC1  669   6.698   1.338   3.328 -0.1147  0.1005  0.1255
    3TYR    SC2  670   6.789   1.127   3.472 -0.0640  0.0891  0.0777
    3TYR    SC3  671   6.958   1.324   3.400 -0.0860  0.0872  0.0206
    1TYR     BB  672   3.087   7.417   4.043 -0.4337 -0.3340 -0.0786
    1TYR    SC1  673   3.013   7.452   4.323  0.5828  0.2310 -0.0841
    1TYR    SC2  674   3.103   7.318   4.540  0.0866 -0.3166 -0.1817
    1TYR    SC3  675   2.932   7.524   4.571  0.4026 -0.0612 -0.0517
    2ARG     BB  676   2.970   7.212   3.802  0.4086  0.0965 -0.0986
    2ARG    SC1  677   3.230   7.162   3.625  0.0669  0.0620  0.2378
    2ARG    SC2  678   3.295   7.189   3.319  0.0376 -0.3317 -0.1476
    3TYR     BB  679   2.704   7.080   3.921 -0.3869  0.1254 -0.2818
    3TYR    SC1  680   2.568   6.903   3.733  0.1643  0.1260 -0.1035
    3TYR    SC2  681   2.346   6.748   3.714  0.0784  0.2260  0.0534
    3TYR    SC3  682   2.561   6.698   3.557  0.1047 -0.1366  0.1938
    1TYR     BB  683   5.232   3.737   4.737  0.3025  0.2339 -0.0757
    1TYR    SC1  684   4.962   3.816   4.568  0.0421 -0.0518 -0.0041
    1TYR    SC2  685   4.704   3.801   4.645 -0.0307  0.2544 -0.1668
    1TYR    SC3  686   4.766   3.809   4.382  0.1390  0.2752 -0.1277
    2ARG     BB  687   5.362   3.931   4.950  0.1009 -0.0418  0.0302
    2ARG    SC1  688   5.097   4.149   4.940  0.2329 -0.0034  0.4589
    2ARG    SC2  689   4.864   4.303   4.901  0.0863  0.1083  0.0736
    3TYR     BB  690   5.562   4.061   5.021  0.0668 -0.1529 -0.2122
    3TYR    SC1  691   5.663   4.345   4.962 -0.1496  0.1809  0.0950
    3TYR    SC2  692   5.878   4.442   4.831  0.1208 -0.3928  0.0706
    3TYR    SC3  693   5.740   4.601   5.001  0.3689  0.0779 -0.1412
    1TYR     BB  694   4.421   5.963   3.078  0.0692 -0.1267 -0.2037
    1TYR    SC1  695   4.416   5.841   2.844 -0.0206  0.4854 -0.0544
    1TYR    SC2  696   4.496   5.605   2.743 -0.0926  0.1775  0.5475
    1TYR    SC3  697   4.304   5.746   2.618 -0.0485 -0.0738  0.1748
    2ARG     BB  698   4.626   5.853   3.304  0.1355  0.0074  0.3467
    2ARG    SC1  699   4.667   5.556   3.300 -0.1418 -0.0872 -0.1597
    2ARG    SC2  700   4.508   5.272   3.134  0.1377 -0.0546 -0.1338
    3TYR     BB  701   4.885   6.005   3.455 -0.3683 -0.1099 -0.2820
    3TYR    SC1  702   5.102   5.815   3.556  0.2958  0.2754 -0.0838
    3TYR    SC2  703   5.273   5.786   3.762  0.0731 -0.3129  0.0438
    3TYR    SC3  704   5.331   5.676   3.522 -0.1475 -0.5887  0.1112
    1TYR     BB  705   7.849   2.534   4.209 -0.0804  0.2039 -0.1551
    1TYR    SC1  706   7.649   2.309   4.254  0.2717 -0.2838 -0.2013
    1TYR    SC2  707   7.583   2.054   4.191 -0.2449 -0.1625 -0.2101
    1TYR    SC3  708   7.439   2.191   4.374  0.1765  0.0534 -0.0198
    2ARG     BB  709   7.950   2.753   4.369  0.3014 -0.1569 -0.0949
    2ARG    SC1  710   7.974   2.848   4.663 -0.3279  0.1305 -0.1383
    2ARG    SC2  711   8.014   2.738   4.970  0.0833 -0.2325  0.2180
    3TYR     BB  712   8.315   2.856   4.323  0.0850  0.1350  0.3603
    3TYR    SC1  713   8.357   2.771   3.998  0.1880  0.1214  0.0535
    3TYR    SC2  714   8.224   2.559   3.898  0.1787  0.0828  0.1471
    3TYR    SC3  715   8.287   2.766   3.738  0.0365  0.0854  0.0942
    1TYR     BB  716   3.620   7.045   4.489 -0.2201  0.1599 -0.0448
    1TYR    SC1  717   3.837   7.155   4.345  0.2829  0.1591  0.3807
    1TYR    SC2  718   3.982   7.362   4.250 -0.1032  0.1823 -0.2189
    1TYR    SC3  719   4.050   7.108   4.186  0.1271  0.1355  0.1739
    2ARG     BB  720   3.542   7.205   4.726 -0.0780  0.3210 -0.0145
    2ARG    SC1  721   3.500   7.530   4.778 -0.1103  0.3863  0.2055
    2ARG    SC2  722   3.781   7.628   4.676  0.1666  0.0069  0.0279
    3TYR     BB  723   3.823   7.128   4.932  0.0705 -0.0252 -0.1131
    3TYR    SC1  724   3.700   7.001   5.243 -0.0219 -0.3242 -0.1603
    3TYR    SC2  725   3.646   6.775   5.382 -0.0575 -0.2729 -0.0904
    3TYR    SC3  726   3.462   6.877   5.212 -0.1318 -0.1723  0.0476
    1TYR     BB  727   7.246   5.014   4.073  0.1710 -0.4165  0.0049
    1TYR    SC1  728   7.214   4.970   3.739 -0.1764  0.3523 -0.1028
    1TYR    SC2  729   7.360   4.999   3.514 -0.3375 -0.2246 -0.3038
    1TYR    SC3  730   7.104   5.081   3.519 -0.3127 -0.1465 -0.3040
    2ARG     BB  731   7.144   4.674   4.237  0.0358  0.1275  0.0580
    2ARG    SC1  732   7.067   4.689   4.496 -0.0869 -0.2220 -0.0971
    2ARG    SC2  733   6.817   4.732   4.639  0.2208  0.1729 -0.1459
    3TYR     BB  734   7.278   4.448   4.072  0.2919  0.2129  0.1979
    3TYR    SC1  735   7.553   4.528   3.979  0.0992 -0.0758 -0.2376
    3TYR    SC2  736   7.717   4.515   3.764  0.0041 -0.2252 -0.3039
    3TYR    SC3  737   7.657   4.754   3.875  0.5813 -0.1881 -0.0304
    1TYR     BB  738   2.425   3.356   3.545 -0.1146 -0.2211  0.2292
    1TYR    SC1  739   2.154   3.488   3.623 -0.0380  0.1732 -0.0061
    1TYR    SC2  740   1.972   3.538   3.816 -0.0302 -0.0272  0.0552
    1TYR    SC3  741   1.947   3.654   3.573 -0.1382  0.0870  0.1196
    2ARG     BB  742   2.543   3.164   3.614 -0.0701 -0.1477  0.1301
    2ARG    SC1  743   2.518   2.837   3.491 -0.0175  0.0948 -0.0225
    2ARG    SC2  744   2.671   2.572   3.559  0.0837 -0.0765  0.1948
    3TYR     BB  745   2.874   3.136   3.678  0.0909  0.1743  0.0575
    3TYR    SC1  746   3.020   2.949   3.445  0.2725 -0.2961  0.4446
    3TYR    SC2  747   3.060   2.723   3.303 -0.1338  0.0928 -0.3677
    3TYR    SC3  748   3.267   2.887   3.357  0.0570 -0.1451 -0.3609
    1TYR     BB  749   3.287   5.358   3.543  0.1997 -0.3823 -0.3291
    1TYR    SC1  750   3.370   5.429   3.252  0.1429 -0.1311  0.1689
    1TYR    SC2  751   3.561   5.449   3.063  0.1127 -0.0594  0.1457
    1TYR    SC3  752   3.304   5.402   2.992  0.1550 -0.3822  0.1891
    2ARG     BB  753   3.037   5.198   3.523  0.0121  0.2224  0.0895
    2ARG    SC1  754   2.854   5.366   3.326  0.1009  0.0982 -0.0415
    2ARG    SC2  755   2.622   5.449   3.176 -0.3567  0.2488  0.1716
    3TYR     BB  756   2.785   5.068   3.799 -0.2933  0.1314 -0.0134
    3TYR    SC1  757   2.562   5.155   3.719 -0.1968  0.2614  0.1997
    3TYR    SC2  758   2.310   5.187   3.810 -0.1623  0.4519  0.2351
    3TYR    SC3  759   2.398   5.334   3.602 -0.0627  0.4263  0.2584
    1TYR     BB  760   7.542   4.242   4.398  0.0167  0.1651 -0.4230
    1TYR    SC1  761   7.718   4.474   4.379  0.1643 -0.1709  0.2238
    1TYR    SC2  762   7.951   4.571   4.286  0.2414 -0.2794  0.3003
    1TYR    SC3  763   7.752   4.741   4.357  0.2117 -0.1917  0.0228
    2ARG     BB  764   7.298   4.169   4.650 -0.0224 -0.1362 -0.0523
    2ARG    SC1  765   7.363   4.170   4.916 -0.2013  0.0833 -0.0478
    2ARG    SC2  766   7.386   4.311   5.228 -0.0808  0.2625 -0.0445
    3TYR     BB  767   6.970   4.161   4.636 -0.2707 -0.1323  0.2302
    3TYR    SC1  768   6.824   3.999   4.854  0.1912  0.1811  0.0095
    3TYR    SC2  769   6.966   3.933   5.074 -0.1528 -0.3073  0.1058
    3TYR    SC3  770   6.698   3.964   5.092 -0.1277  0.1636 -0.1550
    1TYR     BB  771   1.621   3.220   4.970  0.2772  0.2962 -0.2501
    1TYR    SC1  772   1.654   3.370   5.265  0.2135 -0.2564  0.4270
    1TYR    SC2  773   1.763   3.577   5.399  0.3107  0.1113 -0.1672
    1TYR    SC3  774   1.494   3.548   5.391  0.2829  0.3698 -0.2797
    2ARG     BB  775   1.621   3.415   4.733 -0.2380 -0.0122  0.3499
    2ARG    SC1  776   1.514   3.720   4.797 -0.0826  0.1338  0.0722
    2ARG    SC2  777   1.306   3.901   4.985  0.0533  0.0598 -0.2495
    3TYR     BB  778   1.437   3.293   4.480  0.2237 -0.1379 -0.2080
    3TYR    SC1  779   1.503   2.976   4.534 -0.0499 -0.0757  0.2052
    3TYR    SC2  780   1.722   2.851   4.629 -0.0205 -0.0647  0.1527
    3TYR    SC3  781   1.541   2.713   4.484 -0.0118 -0.0573  0.1347
    1TYR     BB  782   5.670   2.631   4.749  0.1634  0.0553 -0.0570
    1TYR    SC1  783   5.494   2.519   4.990  0.1212 -0.0826  0.0398
    1TYR    SC2  784   5.278   2.639   5.099  0.1206 -0.0850  0.0412
    1TYR    SC3  785   5.334   2.381   5.158  0.0517 -0.1238 -0.0594
    2ARG     BB  786   5.456   2.631   4.497  0.1347  0.1302 -0.0751
    2ARG    SC1  787   5.249   2.397   4.352  0.1313  0.0396 -0.2328
    2ARG    SC2  788   4.979   2.472   4.245  0.2420  0.1555 -0.1123
    3TYR     BB  789   5.402   2.869   4.272 -0.0883  0.2499 -0.2121
    3TYR    SC1  790   5.427   2.700   3.995 -0.0192 -0.2440  0.1127
    3TYR    SC2  791   5.611   2.653   3.803  0.0006 -0.2073  0.1224
    3TYR    SC3  792   5.451   2.453   3.888  0.0472 -0.2434  0.1260
    1TYR     BB  793   2.509   3.786   3.300 -0.1071 -0.2301  0.0877
    1TYR    SC1  794   2.715   3.888   3.104 -0.0815  0.0431  0.2362
    1TYR    SC2  795   2.734   4.034   2.877 -0.3398 -0.2925 -0.0153
    1TYR    SC3  796   2.882   4.099   3.093 -0.2658  0.1815 -0.1951
    2ARG     BB  797   2.477   3.906   3.541 -0.0551 -0.0921  0.0595
    2ARG    SC1  798   2.567   3.745   3.820 -0.1438 -0.1009 -0.0622
    2ARG    SC2  799   2.695   3.575   4.059  0.0810 -0.0463 -0.1939
    3TYR     BB  800   2.508   4.210   3.551 -0.0718  0.1554  0.3139
    3TYR    SC1  801   2.484   4.332   3.253 -0.1166  0.3276  0.2139
    3TYR    SC2  802   2.554   4.422   3.008  0.3186  0.2130  0.2871
    3TYR    SC3  803   2.351   4.539   3.142 -0.0047  0.2030 -0.1704
    1TYR     BB  804   5.278   4.161   4.437 -0.2166  0.0067 -0.0222
    1TYR    SC1  805   5.570   4.259   4.523  0.2778  0.1662  0.3922
    1TYR    SC2  806   5.788   4.339   4.386  0.3862 -0.0444  0.4378
    1TYR    SC3  807   5.799   4.120   4.543  0.1050 -0.1379  0.3357
    2ARG     BB  808   5.363   3.847   4.279 -0.0485  0.1193 -0.0837
    2ARG    SC1  809   5.158   3.871   4.051  0.0224 -0.3020  0.0979
    2ARG    SC2  810   4.918   4.133   4.004 -0.1522 -0.2088  0.1427
    3TYR     BB  811   5.672   3.818   4.169 -0.0381 -0.1489  0.0338
    3TYR    SC1  812   5.667   3.706   3.886 -0.2152  0.3278 -0.1322
    3TYR    SC2  813   5.502   3.560   3.731 -0.0835 -0.3798  0.3326
    3TYR    SC3  814   5.761   3.591   3.661 -0.1717 -0.1172  0.0990
    1TYR     BB  815   3.932   6.013   3.371  0.0982  0.2891  0.0085
    1TYR    SC1  816   4.142   5.831   3.474 -0.1486  0.0496 -0.1607
    1TYR    SC2  817   4.249   5.587   3.520  0.0900  0.1411 -0.2084
    1TYR    SC3  818   4.317   5.795   3.677 -0.2426  0.1468 -0.0608
    2ARG     BB  819   3.767   5.983   3.166 -0.2635  0.1775 -0.4362
    2ARG    SC1  820   3.928   6.139   2.897  0.1261 -0.1180  0.0896
    2ARG    SC2  821   4.026   6.158   2.549  0.1695  0.2259 -0.3432
    3TYR     BB  822   3.516   5.933   3.046 -0.2370  0.4214 -0.0488
    3TYR    SC1  823   3.269   5.892   3.134  0.0513 -0.0921  0.0264
    3TYR    SC2  824   3.175   5.838   3.381 -0.1077 -0.0396 -0.0210
    3TYR    SC3  825   3.025   5.781   3.164  0.0026 -0.0230 -0.1028
    1TYR     BB  826   0.794   3.279   3.835 -0.0315 -0.2060  0.3417
    1TYR    SC1  827   0.922   3.531   3.947  0.1798  0.0999  0.2482
    1TYR    SC2  828   1.102   3.634   4.119  0.2472  0.2722  0.0792
    1TYR    SC3  829   1.026   3.777   3.903  0.3513 -0.0353 -0.1697
    2ARG     BB  830   0.628   3.056   3.874 -0.0220 -0.1504 -0.3312
    2ARG    SC1  831   0.781   2.800   3.791 -0.1856  0.1794  0.1215
    2ARG    SC2  832   0.816   2.554   3.557 -0.0633  0.0870 -0.2418
    3TYR     BB  833   0.317   2.971   3.951 -0.3365  0.0155  0.3041
    3TYR    SC1  834   0.415   2.776   4.164 -0.2011 -0.1987  0.0526
    3TYR    SC2  835   0.580   2.807   4.375  0.1836  0.2557 -0.2880
    3TYR    SC3  836   0.594   2.583   4.225  0.0491  0.0209  0.0367
    1TYR     BB  837   2.984   4.532   2.799 -0.0503 -0.0640  0.1656
    1TYR    SC1  838   2.783   4.353   2.585 -0.2244  0.3637  0.0399
    1TYR    SC2  839   2.796   4.103   2.481  0.0906  0.2004  0.4410
    1TYR    SC3  840   2.715   4.310   2.327  0.1146 -0.0952  0.0122
    2ARG     BB  841   2.806   4.819   2.920  0.2473  0.1282 -0.2198
    2ARG    SC1  842   2.543   4.874   2.739  0.2988  0.1855 -0.2442
    2ARG    SC2  843   2.455   5.171   2.579  0.1361  0.0859 -0.3380
    3TYR     BB  844   2.960   5.020   2.993 -0.0384 -0.0122 -0.2583
    3TYR    SC1  845   3.036   5.161   2.704 -0.3173  0.1391 -0.0496
    3TYR    SC2  846   3.248   5.108   2.547 -0.2705  0.0413  0.0448
    3TYR    SC3  847   3.037   5.243   2.447 -0.0765  0.3310  0.0088
    1TYR     BB  848   6.435   1.492   4.381  0.0375  0.0491  0.3724
    1TYR    SC1  849   6.585   1.262   4.227 -0.0313  0.2590 -0.3682
    1TYR    SC2  850   6.618   1.152   3.983  0.2904  0.2497 -0.3256
    1TYR    SC3  851   6.733   1.038   4.199 -0.1756  0.1290 -0.1274
    2ARG     BB  852   6.252   1.645   4.170  0.0844  0.1328 -0.0033
    2ARG    SC1  853   6.312   1.550   3.871  0.0521  0.2376 -0.0339
    2ARG    SC2  854   6.280   1.315   3.667 -0.3770  0.0761 -0.0429
    3TYR     BB  855   6.141   1.921   4.268 -0.0002 -0.1691 -0.2328
    3TYR    SC1  856   5.877   1.917   4.137 -0.2549 -0.0243  0.2252
    3TYR    SC2  857   5.625   1.959   4.227 -0.2767  0.0646  0.1250
    3TYR    SC3  858   5.681   1.742   4.075 -0.2427 -0.0786  0.3376
    1TYR     BB  859   6.819   1.960   4.905 -0.1883  0.0810  0.2348
    1TYR    SC1  860   6.638   2.195   4.780 -0.2310  0.0075  0.2504
    1TYR    SC2  861   6.616   2.453   4.855  0.2984  0.1403  0.0039
    1TYR    SC3  862   6.534   2.376   4.609  0.0283  0.0407  0.1213
    2ARG     BB  863   6.784   1.707   4.776  0.0633 -0.1689  0.1898
    2ARG    SC1  864   6.535   1.589   4.974  0.1218  0.1774  0.1672
    2ARG    SC2  865   6.284   1.612   5.193  0.0375 -0.0975 -0.0058
    3TYR     BB  866   6.896   1.481   4.514 -0.0309 -0.0436 -0.2743
    3TYR    SC1  867   7.188   1.576   4.534 -0.4823  0.0284 -0.1339
    3TYR    SC2  868   7.277   1.745   4.342 -0.1954 -0.1775 -0.1892
    3TYR    SC3  869   7.342   1.788   4.600 -0.3730 -0.0403 -0.1654
    1TYR     BB  870   6.741   2.957   2.728  0.0040 -0.0904 -0.1136
    1TYR    SC1  871   6.818   2.663   2.761 -0.3302  0.0015  0.0784
    1TYR    SC2  872   6.861   2.440   2.614  0.1011  0.1631 -0.0628
    1TYR    SC3  873   6.799   2.420   2.877  0.2175 -0.1212 -0.0534
    2ARG     BB  874   6.587   3.118   2.878 -0.2374 -0.0789 -0.0293
    2ARG    SC1  875   6.286   3.140   2.718  0.4818  0.1923 -0.1230
    2ARG    SC2  876   6.300   3.116   2.400 -0.1608 -0.1762 -0.0177
    3TYR     BB  877   6.512   3.388   3.041 -0.2355  0.0248 -0.0654
    3TYR    SC1  878   6.218   3.478   3.111  0.1096  0.2939 -0.0328
    3TYR    SC2  879   6.007   3.475   3.280 -0.0028  0.1456 -0.1728
    3TYR    SC3  880   6.021   3.297   3.077  0.2877  0.1147 -0.1304
    1TYR     BB  881   0.119   3.348   4.830  0.4035  0.1400  0.1834
    1TYR    SC1  882   0.152   3.583   4.589  0.0381  0.0254 -0.1409
    1TYR    SC2  883   0.342   3.774   4.569  0.1174 -0.0734 -0.3892
    1TYR    SC3  884   0.097   3.817   4.464 -0.0661  0.1243  0.0840
    2ARG     BB  885  -0.131   3.293   4.875  0.0363  0.0935 -0.0464
    2ARG    SC1  886  -0.358   3.489   4.940  0.0133 -0.0599  0.0967
    2ARG    SC2  887  -0.606   3.669   4.911 -0.0194 -0.1334 -0.2288
    3TYR     BB  888  -0.290   3.014   4.774 -0.1639 -0.0797 -0.0137
    3TYR    SC1  889  -0.534   3.028   4.994 -0.0253  0.3537 -0.1064
    3TYR    SC2  890  -0.740   3.202   5.014 -0.5022 -0.1367 -0.4131
    3TYR    SC3  891  -0.732   2.984   5.171  0.2690  0.2752  0.2163
    1TYR     BB  892   2.511   4.817   4.156 -0.1678 -0.3348 -0.0303
    1TYR    SC1  893   2.499   4.653   4.423  0.2766 -0.0254 -0.1028
    1TYR    SC2  894   2.472   4.661   4.691 -0.1459  0.2138 -0.1421
    1TYR    SC3  895   2.617   4.465   4.576  0.0235  0.0930  0.2542
    2ARG     BB  896   2.217   4.684   3.991  0.0590 -0.1802 -0.2581
    2ARG    SC1  897   2.106   4.497   4.205 -0.1634  0.1514 -0.2793
    2ARG    SC2  898   2.111   4.238   4.396 -0.1678  0.1489 -0.0617
    3TYR     BB  899   2.268   4.627   3.665  0.1375  0.1399 -0.1900
    3TYR    SC1  900   2.384   4.812   3.463  0.0442 -0.1659 -0.0259
    3TYR    SC2  901   2.627   4.875   3.364 -0.1343  0.1888 -0.2661
    3TYR    SC3  902   2.407   5.003   3.272 -0.3582  0.2516  0.3136
    1TYR     BB  903   3.977   6.295   3.783  0.1652 -0.1557 -0.3946
    1TYR    SC1  904   4.133   6.579   3.790 -0.3156  0.1898 -0.0176
    1TYR    SC2  905   4.190   6.841   3.821 -0.0503  0.1644 -0.2371
    1TYR    SC3  906   4.364   6.654   3.906 -0.2652  0.0514 -0.0266
    2ARG     BB  907   4.063   6.117   3.980 -0.0571  0.0258 -0.3174
    2ARG    SC1  908   4.402   6.154   4.000  0.1227  0.2352 -0.3920
    2ARG    SC2  909   4.691   6.026   3.913  0.0033 -0.1000 -0.0639
    3TYR     BB  910   3.945   5.871   4.053 -0.1309 -0.0616 -0.2172
    3TYR    SC1  911   3.739   5.822   3.788 -0.0725  0.0149  0.0468
    3TYR    SC2  912   3.790   5.627   3.608  0.1964  0.1411 -0.0198
    3TYR    SC3  913   3.551   5.751   3.608 -0.0804 -0.3558  0.1896
    1TYR     BB  914   7.201   1.696   3.625  0.0398  0.1426 -0.0326
    1TYR    SC1  915   7.268   1.936   3.773  0.0691  0.0097 -0.0219
    1TYR    SC2  916   7.288   2.194   3.847 -0.0769  0.0180 -0.0070
    1TYR    SC3  917   7.182   2.013   4.017 -0.4600  0.0463 -0.2033
    2ARG     BB  918   6.973   1.559   3.816  0.2002 -0.3486 -0.1605
    2ARG    SC1  919   7.140   1.405   4.047 -0.0399 -0.1961 -0.3127
    2ARG    SC2  920   7.394   1.133   4.127  0.1635 -0.0091  0.0855
    3TYR     BB  921   6.747   1.703   3.929  0.0950  0.2399 -0.2954
    3TYR    SC1  922   6.788   1.823   4.223 -0.0849 -0.1184 -0.0528
    3TYR    SC2  923   6.890   1.991   4.408 -0.2198 -0.2514  0.1483
    3TYR    SC3  924   6.623   1.963   4.385 -0.2232  0.0471 -0.3296
    1TYR     BB  925   1.556   2.587   2.641  0.1602 -0.2661 -0.0331
    1TYR    SC1  926   1.302   2.430   2.723  0.2455  0.1994  0.3048
    1TYR    SC2  927   1.145   2.279   2.883  0.1471  0.0826  0.1019
    1TYR    SC3  928   1.035   2.430   2.688  0.2715  0.1603  0.0905
    2ARG     BB  929   1.631   2.889   2.541  0.1419  0.0857  0.1735
    2ARG    SC1  930   1.921   2.942   2.406 -0.0295 -0.0861  0.0499
    2ARG    SC2  931   2.207   2.981   2.327  0.2984  0.1594  0.3029
    3TYR     BB  932   1.448   3.020   2.457  0.1383 -0.1687  0.2366
    3TYR    SC1  933   1.554   3.260   2.272  0.0464  0.0221  0.0380
    3TYR    SC2  934   1.507   3.468   2.106 -0.0691 -0.1990 -0.2154
    3TYR    SC3  935   1.726   3.314   2.071  0.0768 -0.0599  0.0418
    1TYR     BB  936   6.375   5.538   3.632  0.5149 -0.1418 -0.0746
    1TYR    SC1  937   6.386   5.236   3.692  0.0159  0.0200 -0.2546
    1TYR    SC2  938   6.550   5.070   3.557 -0.1896  0.1030 -0.6219
    1TYR    SC3  939   6.393   4.974   3.753  0.0632 -0.0338 -0.4799
    2ARG     BB  940   6.076   5.557   3.456 -0.0219 -0.0827 -0.3766
    2ARG    SC1  941   6.120   5.763   3.221  0.0037  0.2786  0.3298
    2ARG    SC2  942   6.092   6.059   3.112  0.3218  0.2634  0.0667
    3TYR     BB  943   5.859   5.664   3.634  0.0928 -0.1131 -0.1718
    3TYR    SC1  944   5.905   5.710   3.916  0.0075 -0.1663  0.1534
    3TYR    SC2  945   6.140   5.736   4.045 -0.0515  0.4197  0.1770
    3TYR    SC3  946   5.915   5.687   4.185  0.0458 -0.2287  0.1469
    1TYR     BB  947   3.401   4.638   2.599 -0.2701  0.2013 -0.1022
    1TYR    SC1  948   3.518   4.769   2.357  0.1080 -0.1998  0.0108
    1TYR    SC2  949   3.421   4.813   2.109 -0.2327  0.2142  0.2003
    1TYR    SC3  950   3.601   4.983   2.215  0.3271 -0.2506  0.0591
    2ARG     BB  951   3.676   4.475   2.705  0.1386  0.2899  0.0050
    2ARG    SC1  952   3.872   4.725   2.839  0.0730  0.0251 -0.0772
    2ARG    SC2  953   3.749   5.000   2.744 -0.2649  0.1775 -0.3008
    3TYR     BB  954   3.810   4.302   2.526  0.2240  0.2618 -0.4260
    3TYR    SC1  955   3.812   4.302   2.230 -0.0235  0.0045  0.0231
    3TYR    SC2  956   3.828   4.254   1.964  0.2773  0.1911  0.0012
    3TYR    SC3  957   3.795   4.507   2.054 -0.0495  0.1043  0.1404
    1TYR     BB  958   5.658   5.384   3.214 -0.2437 -0.4638 -0.1706
    1TYR    SC1  959   5.422   5.558   3.098  0.0678 -0.1881  0.3447
    1TYR    SC2  960   5.303   5.772   2.985  0.0717 -0.2603  0.1998
    1TYR    SC3  961   5.156   5.557   3.055  0.0160 -0.0914  0.6410
    2ARG     BB  962   5.663   5.210   3.526  0.1286  0.1050  0.0528
    2ARG    SC1  963   5.396   5.166   3.612  0.0440  0.0008  0.2173
    2ARG    SC2  964   5.069   5.294   3.487  0.0581  0.0414 -0.1119
    3TYR     BB  965   5.890   5.161   3.675  0.0258 -0.0291 -0.2384
    3TYR    SC1  966   6.010   5.219   3.965  0.2456  0.1964 -0.0941
    3TYR    SC2  967   6.203   5.202   4.153  0.0579  0.1263  0.0969
    3TYR    SC3  968   5.943   5.185   4.224 -0.0165  0.0617 -0.1749
    1TYR     BB  969   2.606   3.046   2.568 -0.0754  0.0887 -0.1544
    1TYR    SC1  970   2.773   2.750   2.539  0.2025  0.0321 -0.2165
    1TYR    SC2  971   2.986   2.666   2.396  0.1785 -0.1318 -0.1604
    1TYR    SC3  972   2.894   2.516   2.600  0.0513 -0.0281 -0.1394
    2ARG     BB  973   2.443   3.019   2.825 -0.0998 -0.1523  0.2047
    2ARG    SC1  974   2.633   2.837   2.986 -0.0883  0.0287 -0.0584
    2ARG    SC2  975   2.621   2.542   3.015  0.1467 -0.0498 -0.0971
    3TYR     BB  976   2.207   3.071   2.875  0.0297 -0.0544 -0.3718
    3TYR    SC1  977   2.103   3.332   2.993  0.0689  0.0717 -0.2116
    3TYR    SC2  978   1.941   3.539   2.931  0.1659  0.1498 -0.2068
    3TYR    SC3  979   2.078   3.540   3.164 -0.0600 -0.0587 -0.0680
    1TYR     BB  980   6.651   2.733   3.715 -0.0387 -0.1204 -0.1675
    1TYR    SC1  981   6.722   2.984   3.627  0.2850 -0.4697 -0.2172
    1TYR    SC2  982   6.844   3.225   3.639  0.0645 -0.3583 -0.1491
    1TYR    SC3  983   6.765   3.126   3.400 -0.0236 -0.2695 -0.1578
    2ARG     BB  984   6.371   2.578   3.826 -0.1428 -0.2837 -0.2060
    2ARG    SC1  985   6.102   2.728   3.738 -0.0678 -0.2264  0.1481
    2ARG    SC2  986   5.966   2.513   3.496  0.4398 -0.2390 -0.1883
    3TYR     BB  987   6.307   2.437   4.110 -0.1273  0.0043 -0.1329
    3TYR    SC1  988   6.039   2.469   4.214 -0.0135  0.0593  0.1320
    3TYR    SC2  989   5.858   2.668   4.242 -0.2570 -0.1236 -0.0749
    3TYR    SC3  990   5.775   2.418   4.183  0.0517 -0.2664  0.0665
    1TYR     BB  991  -0.683   3.102   4.050 -0.0712 -0.2435  0.1996
    1TYR    SC1  992  -0.901   3.227   4.126  0.0317 -0.0789 -0.1253
    1TYR    SC2  993  -1.101   3.189   4.304  0.2675 -0.1373  0.1356
    1TYR    SC3  994  -1.016   3.439   4.246 -0.0367 -0.0939 -0.1637
    2ARG     BB  995  -0.610   3.000   3.733 -0.0091  0.2075  0.0966
    2ARG    SC1  996  -0.956   2.895   3.632  0.1966 -0.2047 -0.0613
    2ARG    SC2  997  -1.218   2.709   3.583  0.1192  0.1894  0.0593
    3TYR     BB  998  -0.504   3.235   3.496 -0.1669 -0.3450  0.2153
    3TYR    SC1  999  -0.674   3.239   3.257  0.2202  0.0044 -0.0836
    3TYR    SC2 1000  -0.719   3.116   3.022 -0.1769 -0.3086  0.1388
    3TYR    SC3 1001  -0.846   3.347   3.080  0.1246 -0.0860 -0.0473
    1TYR     BB 1002   7.964   3.643   3.501 -0.1165 -0.2393 -0.0568
    1TYR    SC1 1003   8.261   3.613   3.621  0.1121 -0.0251  0.0934
    1TYR    SC2 1004   8.470   3.467   3.713  0.2416 -0.3527 -0.6280
    1TYR    SC3 1005   8.497   3.616   3.489 -0.0514  0.3909 -0.2176
    2ARG     BB 1006   7.967   3.966   3.384  0.1458 -0.1643  0.2220
    2ARG    SC1 1007   8.224   4.059   3.258 -0.0851 -0.0745 -0.0849
    2ARG    SC2 1008   8.372   4.316   3.031 -0.0784 -0.2670 -0.0837
    3TYR     BB 1009   7.735   4.131   3.401 -0.2204  0.1908 -0.2838
    3TYR    SC1 1010   7.474   3.961   3.362 -0.0184  0.0504 -0.2593
    3TYR    SC2 1011   7.351   3.727   3.309 -0.1894  0.0673  0.0365
    3TYR    SC3 1012   7.238   3.959   3.231 -0.1683  0.0664  0.0031
    1TYR     BB 1013   7.332   1.930   5.111  0.1336  0.2224 -0.1305
    1TYR    SC1 1014   7.241   1.596   5.075  0.0601  0.0768 -0.3000
    1TYR    SC2 1015   7.258   1.369   4.930  0.3601 -0.1558  0.0754
    1TYR    SC3 1016   7.038   1.417   5.079 -0.0267  0.1636 -0.5418
    2ARG     BB 1017   7.177   2.004   5.346 -0.0739 -0.0259 -0.0424
    2ARG    SC1 1018   7.335   2.188   5.529 -0.1224  0.2966  0.1397
    2ARG    SC2 1019   7.572   2.235   5.759 -0.0252  0.0587  0.0619
    3TYR     BB 1020   6.974   2.333   5.249  0.0557 -0.1780 -0.0495
    3TYR    SC1 1021   7.097   2.349   4.987 -0.2430  0.1429  0.0817
    3TYR    SC2 1022   7.039   2.410   4.732  0.0185  0.3444  0.0637
    3TYR    SC3 1023   7.226   2.224   4.787 -0.2746  0.0517  0.1173
    1TYR     BB 1024   0.118   2.568   5.618  0.0681 -0.2140  0.1509
    1TYR    SC1 1025  -0.058   2.355   5.631  0.0276  0.3319  0.3944
    1TYR    SC2 1026  -0.300   2.241   5.589  0.2026  0.0284  0.1599
    1TYR    SC3 1027  -0.140   2.151   5.788  0.3784 -0.2173 -0.0817
    2ARG     BB 1028   0.431   2.501   5.692  0.2028 -0.1673 -0.2812
    2ARG    SC1 1029   0.421   2.160   5.688  0.0822  0.2147 -0.2637
    2ARG    SC2 1030   0.460   1.840   5.681 -0.0168 -0.0651  0.4044
    3TYR     BB 1031   0.587   2.771   5.848  0.3491  0.1332 -0.0239
    3TYR    SC1 1032   0.816   2.796   5.706  0.0022  0.0467 -0.0485
    3TYR    SC2 1033   1.084   2.763   5.717  0.0203  0.0571 -0.3487
    3TYR    SC3 1034   0.952   2.722   5.485 -0.2536 -0.0385 -0.1822
    1TYR     BB 1035   6.615   4.135   3.403 -0.1010 -0.1162  0.0100
    1TYR    SC1 1036   6.849   4.104   3.578 -0.0684  0.0747  0.3085
    1TYR    SC2 1037   7.093   4.100   3.694  0.0790 -0.1300  0.0093
    1TYR    SC3 1038   6.871   4.083   3.846  0.2493  0.0033  0.2836
    2ARG     BB 1039   6.589   3.845   3.235  0.1215  0.3815  0.2187
    2ARG    SC1 1040   6.470   3.877   2.985  0.1560 -0.0190  0.0785
    2ARG    SC2 1041   6.456   4.137   2.794  0.2472 -0.5519  0.1085
    3TYR     BB 1042   6.765   3.646   3.352  0.1644 -0.1617 -0.2820
    3TYR    SC1 1043   6.841   3.660   3.669  0.1536  0.1500  0.0901
    3TYR    SC2 1044   7.098   3.650   3.751  0.1536 -0.0734  0.0691
    3TYR    SC3 1045   6.898   3.641   3.932  0.1593  0.1440  0.0885
    1TYR     BB 1046   1.232   3.161   4.079  0.0568 -0.0928  0.0557
    1TYR    SC1 1047   1.260   3.056   3.814  0.2521 -0.3993  0.1118
    1TYR    SC2 1048   1.397   3.056   3.582 -0.3122  0.2064 -0.2674
    1TYR    SC3 1049   1.219   2.861   3.632  0.0000 -0.0735 -0.2006
    2ARG     BB 1050   1.021   3.045   4.262  0.0525 -0.0900 -0.2707
    2ARG    SC1 1051   1.087   2.746   4.209  0.1043 -0.0328  0.0254
    2ARG    SC2 1052   1.020   2.534   4.430 -0.3152  0.0223 -0.2617
    3TYR     BB 1053   0.968   3.051   4.581 -0.0081 -0.0458  0.3832
    3TYR    SC1 1054   1.087   2.851   4.730  0.0404  0.1958  0.0042
    3TYR    SC2 1055   1.278   2.694   4.838  0.0209  0.0896 -0.1144
    3TYR    SC3 1056   1.020   2.662   4.911  0.0052  0.0046 -0.2032
    1TYR     BB 1057   6.310   2.036   3.724 -0.0611  0.2266  0.0567
    1TYR    SC1 1058   5.997   2.079   3.694 -0.0968 -0.3330  0.0925
    1TYR    SC2 1059   5.733   2.111   3.746 -0.1123 -0.2959 -0.0064
    1TYR    SC3 1060   5.818   2.073   3.492  0.0290  0.2808 -0.0626
    2ARG     BB 1061   6.464   1.849   3.511  0.0502 -0.0939 -0.2021
    2ARG    SC1 1062   6.231   1.774   3.313 -0.0250  0.0219  0.0005
    2ARG    SC2 1063   5.985   1.677   3.193  0.1657  0.0743  0.2116
    3TYR     BB 1064   6.770   1.826   3.456  0.0363  0.0154 -0.0148
    3TYR    SC1 1065   6.948   2.007   3.316 -0.2884  0.0285 -0.0035
    3TYR    SC2 1066   7.078   2.138   3.118  0.1777 -0.2565  0.0956
    3TYR    SC3 1067   7.154   2.172   3.375 -0.2411 -0.1024  0.2089
    1TYR     BB 1068   0.088   1.971   3.518  0.1744  0.1919  0.2116
    1TYR    SC1 1069  -0.073   2.027   3.780  0.1112  0.1031 -0.2406
    1TYR    SC2 1070  -0.138   1.990   4.040  0.4036  0.1063 -0.1640
    1TYR    SC3 1071  -0.265   2.178   3.895  0.4536  0.3226  0.0663
    2ARG     BB 1072  -0.164   2.146   3.216 -0.2578  0.1406  0.2180
    2ARG    SC1 1073  -0.419   2.254   3.372 -0.2145 -0.0532  0.0594
    2ARG    SC2 1074  -0.724   2.240   3.417 -0.0721 -0.0535 -0.2298
    3TYR     BB 1075  -0.058   2.298   2.867 -0.3751  0.1192 -0.3081
    3TYR    SC1 1076  -0.371   2.451   2.857  0.1019  0.3554 -0.2510
    3TYR    SC2 1077  -0.484   2.669   2.971 -0.0894 -0.0349  0.3700
    3TYR    SC3 1078  -0.620   2.437   2.960  0.2437 -0.2315  0.0639
    1TYR     BB 1079   3.775   5.744   2.636 -0.0997  0.2667  0.1396
    1TYR    SC1 1080   3.938   5.641   2.859  0.2258  0.0049  0.1244
    1TYR    SC2 1081   4.085   5.630   3.086  0.2369  0.0383  0.1189
    1TYR    SC3 1082   4.039   5.406   2.943  0.1189 -0.0063  0.2249
    2ARG     BB 1083   3.541   5.577   2.538  0.0342  0.1949 -0.3603
    2ARG    SC1 1084   3.581   5.457   2.232  0.0869 -0.1352 -0.2539
    2ARG    SC2 1085   3.753   5.428   1.974 -0.1291 -0.2525  0.1058
    3TYR     BB 1086   3.243   5.767   2.615  0.1065 -0.1285 -0.0860
    3TYR    SC1 1087   3.266   6.053   2.678  0.2930  0.1686 -0.0835
    3TYR    SC2 1088   3.208   6.315   2.708 -0.1553  0.1132 -0.3626
    3TYR    SC3 1089   3.464   6.237   2.676 -0.0089  0.5072 -0.2284
    1TYR     BB 1090   2.741   3.343   2.173 -0.0417  0.0288  0.3075
    1TYR    SC1 1091   2.752   3.104   2.020  0.1265  0.0778  0.0479
    1TYR    SC2 1092   2.703   2.848   2.090 -0.0409  0.1359  0.1508
    1TYR    SC3 1093   2.937   2.913   1.970 -0.0530 -0.0865 -0.0019
    2ARG     BB 1094   2.482   3.481   2.167  0.0014 -0.2756  0.0447
    2ARG    SC1 1095   2.253   3.320   1.994 -0.2888  0.1904 -0.1059
    2ARG    SC2 1096   2.136   3.418   1.735 -0.0607  0.0227  0.0526
    3TYR     BB 1097   2.467   3.827   2.315  0.3022  0.4684  0.2999
    3TYR    SC1 1098   2.476   3.742   2.602  0.0319  0.0752  0.2732
    3TYR    SC2 1099   2.436   3.665   2.858  0.0436 -0.3664  0.1526
    3TYR    SC3 1100   2.661   3.591   2.728  0.0492 -0.1247  0.0178
   7.64069   7.64069   7.64069
