Generated by trjconv : Martini system from ../2_Creating_coordinates/TYR-TYR-TYR_aa.pdb t=   0.00000
 1200
    1TYR     BB    1   1.424   6.345   2.655 -0.1820  0.0634 -0.0198
    1TYR    SC1    2   1.222   6.525   2.788  0.2875  0.3190 -0.3946
    1TYR    SC2    3   0.993   6.667   2.806  0.2284  0.1807  0.3846
    1TYR    SC3    4   1.229   6.782   2.870  0.3396  0.2112 -0.0410
    2TYR     BB    5   1.640   6.196   2.719  0.0853  0.1338 -0.1508
    2TYR    SC1    6   1.956   6.276   2.689  0.3232  0.0905  0.0849
    2TYR    SC2    7   2.181   6.425   2.686  0.4475 -0.0890 -0.2581
    2TYR    SC3    8   2.128   6.258   2.481 -0.1930  0.2306 -0.3833
    3TYR     BB    9   1.654   5.924   2.701  0.1604 -0.0626 -0.2079
    3TYR    SC1   10   1.540   5.731   2.504  0.1371 -0.1850  0.0952
    3TYR    SC2   11   1.587   5.595   2.276  0.0722 -0.0609  0.0059
    3TYR    SC3   12   1.363   5.546   2.418  0.0949 -0.1125  0.0244
    1TYR     BB   13   2.109   7.024   1.704  0.0305  0.1121 -0.0789
    1TYR    SC1   14   2.159   7.210   1.483 -0.1571  0.0475  0.1517
    1TYR    SC2   15   2.154   7.276   1.221  0.0584 -0.2643  0.0616
    1TYR    SC3   16   2.150   7.470   1.409 -0.2918 -0.0401 -0.1621
    2TYR     BB   17   1.950   7.142   1.944  0.2335 -0.2159  0.0080
    2TYR    SC1   18   2.094   7.397   2.032 -0.0349  0.2635  0.0550
    2TYR    SC2   19   2.216   7.557   1.852 -0.0397  0.2977  0.0817
    2TYR    SC3   20   2.076   7.666   2.055 -0.2889  0.2598 -0.0647
    3TYR     BB   21   1.735   7.018   2.141  0.2292  0.0881  0.1809
    3TYR    SC1   22   1.516   7.265   2.105  0.1392 -0.1164  0.0933
    3TYR    SC2   23   1.334   7.445   2.017  0.0127 -0.1443  0.2909
    3TYR    SC3   24   1.581   7.527   2.089  0.1181 -0.1197 -0.0744
    1TYR     BB   25   1.448   6.882   1.790  0.0442 -0.0633 -0.0448
    1TYR    SC1   26   1.191   6.952   1.906  0.0158  0.2219 -0.2176
    1TYR    SC2   27   0.971   6.884   2.046  0.1447 -0.2480 -0.2214
    1TYR    SC3   28   1.000   7.137   1.954 -0.1097 -0.0180  0.2794
    2TYR     BB   29   1.622   7.022   1.566  0.4788  0.0519  0.1100
    2TYR    SC1   30   1.650   7.349   1.651  0.4692 -0.0896 -0.0377
    2TYR    SC2   31   1.759   7.576   1.553 -0.1204  0.1523 -0.1867
    2TYR    SC3   32   1.494   7.564   1.604 -0.0145 -0.3162  0.4032
    3TYR     BB   33   1.742   6.912   1.343 -0.2378  0.0374  0.1516
    3TYR    SC1   34   1.993   6.721   1.334  0.0124  0.0677 -0.4065
    3TYR    SC2   35   2.223   6.639   1.450 -0.1738  0.1836  0.0712
    3TYR    SC3   36   2.143   6.530   1.217  0.1137 -0.2183  0.1486
    1TYR     BB   37   2.778   4.740   4.140  0.0765 -0.0320 -0.2750
    1TYR    SC1   38   2.644   4.892   3.916 -0.3594  0.2113  0.5207
    1TYR    SC2   39   2.426   5.016   3.816 -0.3811 -0.3408 -0.2259
    1TYR    SC3   40   2.657   5.016   3.676 -0.1094 -0.3827  0.2010
    2TYR     BB   41   2.704   4.436   4.039  0.0259 -0.0249  0.2608
    2TYR    SC1   42   2.553   4.495   3.756  0.0858 -0.1111  0.0154
    2TYR    SC2   43   2.312   4.512   3.635  0.1244 -0.0009 -0.0486
    2TYR    SC3   44   2.537   4.547   3.491  0.1859 -0.2450 -0.0180
    3TYR     BB   45   2.968   4.246   4.025 -0.1785  0.1373  0.3265
    3TYR    SC1   46   2.822   3.967   3.943  0.2725 -0.0242 -0.0492
    3TYR    SC2   47   2.719   3.731   3.860 -0.4499  0.2920 -0.1455
    3TYR    SC3   48   2.649   3.832   4.101  0.2183  0.2172  0.1049
    1TYR     BB   49   3.359   5.440   2.595  0.1333  0.1569  0.2779
    1TYR    SC1   50   3.660   5.532   2.565  0.3004 -0.1218  0.3692
    1TYR    SC2   51   3.836   5.728   2.624 -0.0136  0.3096 -0.0364
    1TYR    SC3   52   3.861   5.589   2.394 -0.0878  0.2322  0.0017
    2TYR     BB   53   3.250   5.319   2.876  0.2191 -0.1789  0.0787
    2TYR    SC1   54   3.250   4.975   2.850  0.0569 -0.2480 -0.0086
    2TYR    SC2   55   3.190   4.712   2.843  0.0430 -0.2426 -0.1008
    2TYR    SC3   56   3.177   4.860   2.617  0.2895 -0.2153 -0.1007
    3TYR     BB   57   3.125   5.435   3.062 -0.2533  0.0352  0.1937
    3TYR    SC1   58   3.097   5.282   3.332 -0.2801 -0.1306  0.0279
    3TYR    SC2   59   2.957   5.303   3.561 -0.0176 -0.1424  0.1950
    3TYR    SC3   60   3.192   5.171   3.559  0.2554  0.3179  0.0492
    1TYR     BB   61   5.880   3.991   5.705 -0.1244  0.0371  0.0865
    1TYR    SC1   62   5.704   4.085   5.483 -0.4683  0.0941  0.0461
    1TYR    SC2   63   5.484   4.101   5.328 -0.4681 -0.0341  0.0314
    1TYR    SC3   64   5.693   4.266   5.283 -0.2893 -0.3509 -0.3933
    2TYR     BB   65   5.818   3.877   6.000 -0.1071  0.0040 -0.0924
    2TYR    SC1   66   6.038   3.643   6.020  0.2656  0.0487 -0.1199
    2TYR    SC2   67   6.110   3.388   5.971  0.2222  0.0464 -0.1719
    2TYR    SC3   68   6.129   3.487   6.221 -0.0905 -0.1150 -0.0771
    3TYR     BB   69   5.613   3.983   6.149 -0.0474 -0.0241  0.2506
    3TYR    SC1   70   5.355   3.988   5.958 -0.0927 -0.1440  0.2031
    3TYR    SC2   71   5.245   4.042   5.717  0.2289  0.1937  0.1192
    3TYR    SC3   72   5.119   4.119   5.943  0.0107  0.0326  0.0571
    1TYR     BB   73   1.711   6.167   1.264 -0.1799 -0.0156  0.0317
    1TYR    SC1   74   1.498   6.065   1.090 -0.0701 -0.0539 -0.0599
    1TYR    SC2   75   1.273   6.174   0.987  0.0230  0.1188 -0.0845
    1TYR    SC3   76   1.342   5.920   0.924 -0.0336  0.1494 -0.2776
    2TYR     BB   77   1.660   6.398   1.508 -0.0809  0.2182  0.6026
    2TYR    SC1   78   1.409   6.521   1.395 -0.1112 -0.2593  0.1147
    2TYR    SC2   79   1.299   6.736   1.274  0.0681 -0.0758  0.2678
    2TYR    SC3   80   1.146   6.521   1.332 -0.1245  0.0260  0.1516
    3TYR     BB   81   1.797   6.475   1.781  0.1068 -0.1636  0.0370
    3TYR    SC1   82   2.089   6.381   1.897 -0.0024  0.0206  0.3255
    3TYR    SC2   83   2.337   6.415   1.796 -0.1694 -0.4357 -0.3184
    3TYR    SC3   84   2.298   6.255   2.010  0.1210  0.0151  0.0985
    1TYR     BB   85  -0.157   3.301   5.362  0.0458 -0.0682  0.1272
    1TYR    SC1   86  -0.227   3.170   5.619 -0.0747  0.4254  0.0829
    1TYR    SC2   87  -0.066   3.106   5.826 -0.0180 -0.2131 -0.1291
    1TYR    SC3   88  -0.333   3.120   5.862 -0.0097 -0.3307 -0.0127
    2TYR     BB   89  -0.288   3.641   5.420 -0.3299  0.3180  0.0445
    2TYR    SC1   90  -0.505   3.565   5.631 -0.0665  0.4074 -0.1227
    2TYR    SC2   91  -0.773   3.533   5.633 -0.0156 -0.1856  0.2025
    2TYR    SC3   92  -0.628   3.475   5.854  0.4104 -0.1517 -0.0543
    3TYR     BB   93  -0.097   3.780   5.473  0.0623  0.1919  0.4588
    3TYR    SC1   94   0.011   3.677   5.775  0.3010  0.1306  0.1135
    3TYR    SC2   95   0.080   3.662   6.035  0.0987  0.1683  0.1712
    3TYR    SC3   96  -0.180   3.685   5.965  0.1597  0.2754 -0.0303
    1TYR     BB   97   2.486   4.570   2.656  0.1391  0.1440  0.4370
    1TYR    SC1   98   2.486   4.236   2.662  0.0866 -0.0404  0.1095
    1TYR    SC2   99   2.393   3.992   2.596 -0.2041  0.1827 -0.3772
    1TYR    SC3  100   2.638   4.018   2.705 -0.1623 -0.3173 -0.3223
    2TYR     BB  101   2.588   4.784   2.484 -0.0811 -0.1496  0.1900
    2TYR    SC1  102   2.773   5.000   2.661  0.2900 -0.0680 -0.0451
    2TYR    SC2  103   2.730   5.172   2.865  0.2616 -0.2680  0.1217
    2TYR    SC3  104   2.774   5.266   2.616 -0.1759 -0.0253  0.1242
    3TYR     BB  105   2.555   4.904   2.150  0.0702  0.1015  0.0819
    3TYR    SC1  106   2.834   5.115   2.161  0.0922  0.2864  0.6526
    3TYR    SC2  107   3.004   5.235   1.990 -0.0755 -0.3264 -0.0022
    3TYR    SC3  108   3.082   5.183   2.244  0.2491  0.4562  0.0932
    1TYR     BB  109   1.907   4.647   4.558 -0.3169  0.0832 -0.0893
    1TYR    SC1  110   1.843   4.936   4.562  0.1206  0.2551 -0.2104
    1TYR    SC2  111   1.686   5.124   4.676 -0.2127 -0.0319 -0.1752
    1TYR    SC3  112   1.862   5.194   4.483 -0.3647  0.3038 -0.2018
    2TYR     BB  113   2.208   4.490   4.529  0.2073 -0.0706  0.3283
    2TYR    SC1  114   2.249   4.312   4.280 -0.1683  0.1512 -0.4044
    2TYR    SC2  115   2.274   4.071   4.161 -0.2678 -0.0337 -0.0656
    2TYR    SC3  116   2.184   4.282   4.019  0.1541 -0.1009 -0.4638
    3TYR     BB  117   2.429   4.690   4.567  0.0440 -0.1853  0.2607
    3TYR    SC1  118   2.514   4.812   4.826  0.1254 -0.0095  0.1037
    3TYR    SC2  119   2.547   4.837   5.093 -0.1090  0.1645  0.1205
    3TYR    SC3  120   2.618   5.039   4.929 -0.1633  0.1437  0.0710
    1TYR     BB  121   2.063   3.788   5.531  0.1283  0.1158 -0.0665
    1TYR    SC1  122   2.227   3.798   5.793  0.1702 -0.0007  0.1164
    1TYR    SC2  123   2.318   3.719   6.035  0.0072 -0.1914  0.1186
    1TYR    SC3  124   2.493   3.788   5.841  0.1384  0.0769  0.3234
    2TYR     BB  125   2.268   3.888   5.312  0.2823  0.0203  0.1084
    2TYR    SC1  126   2.408   4.106   5.402  0.2308  0.2779 -0.4097
    2TYR    SC2  127   2.440   4.372   5.434  0.2340  0.2524 -0.1755
    2TYR    SC3  128   2.540   4.202   5.617 -0.1075  0.1086 -0.1125
    3TYR     BB  129   2.350   3.708   5.074 -0.1514  0.0336 -0.2061
    3TYR    SC1  130   2.259   3.769   4.795 -0.0920 -0.1282 -0.0580
    3TYR    SC2  131   2.156   3.758   4.546  0.1277  0.0187 -0.1596
    3TYR    SC3  132   2.258   3.989   4.640 -0.3289  0.0840  0.2291
    1TYR     BB  133   2.107   4.828   2.949 -0.2821 -0.0400  0.0234
    1TYR    SC1  134   2.024   4.809   2.657 -0.2352 -0.1561 -0.0356
    1TYR    SC2  135   1.881   4.917   2.455  0.1248  0.0764 -0.1793
    1TYR    SC3  136   2.089   4.753   2.401 -0.0550 -0.2330  0.0245
    2TYR     BB  137   2.159   4.511   3.030 -0.0067  0.0472 -0.1812
    2TYR    SC1  138   2.037   4.385   2.754  0.3529 -0.0373 -0.1396
    2TYR    SC2  139   1.934   4.351   2.507  0.0188 -0.2398  0.0182
    2TYR    SC3  140   1.963   4.139   2.672 -0.2856 -0.0423  0.3447
    3TYR     BB  141   2.082   4.411   3.253 -0.2242 -0.0852 -0.2564
    3TYR    SC1  142   1.769   4.305   3.212  0.2980  0.3023 -0.2378
    3TYR    SC2  143   1.559   4.266   3.047  0.1115 -0.1877  0.0841
    3TYR    SC3  144   1.580   4.496   3.188 -0.3651 -0.2319  0.2469
    1TYR     BB  145   1.041   4.300   5.555  0.1609  0.5147 -0.1220
    1TYR    SC1  146   1.217   4.043   5.678  0.0509  0.1885 -0.2736
    1TYR    SC2  147   1.276   3.835   5.841 -0.0613  0.3307 -0.0444
    1TYR    SC3  148   1.157   3.790   5.603  0.1974  0.1112 -0.1393
    2TYR     BB  149   1.153   4.555   5.590 -0.3273  0.2308 -0.0720
    2TYR    SC1  150   1.086   4.752   5.407 -0.2626 -0.2367 -0.0088
    2TYR    SC2  151   0.871   4.915   5.409 -0.2554 -0.2275  0.0220
    2TYR    SC3  152   1.045   4.923   5.203 -0.1304 -0.0321  0.1316
    3TYR     BB  153   1.505   4.554   5.674  0.6558 -0.3414  0.3746
    3TYR    SC1  154   1.574   4.306   5.527 -0.0611  0.2480  0.0987
    3TYR    SC2  155   1.719   4.253   5.306 -0.1296  0.1507  0.0762
    3TYR    SC3  156   1.676   4.059   5.488 -0.0441  0.2399  0.1932
    1TYR     BB  157   5.840   2.572   6.202 -0.0045  0.2654  0.0190
    1TYR    SC1  158   5.786   2.887   6.248  0.2962  0.0620  0.3778
    1TYR    SC2  159   5.778   3.149   6.182  0.2770 -0.0153  0.0484
    1TYR    SC3  160   5.847   3.075   6.432  0.5137  0.2950  0.0834
    2TYR     BB  161   5.926   2.530   5.911  0.0474  0.0628 -0.2222
    2TYR    SC1  162   5.939   2.783   5.686 -0.2012  0.1156  0.1861
    2TYR    SC2  163   5.952   3.041   5.764 -0.0387  0.1319  0.1109
    2TYR    SC3  164   6.022   2.973   5.513  0.3069 -0.0344  0.2429
    3TYR     BB  165   5.895   2.237   5.798  0.1396 -0.1441  0.2876
    3TYR    SC1  166   5.931   2.065   6.068  0.0349 -0.0866 -0.1164
    3TYR    SC2  167   6.077   1.889   6.212  0.1673  0.0672 -0.0596
    3TYR    SC3  168   5.888   2.038   6.334  0.2055  0.1201 -0.0644
    1TYR     BB  169   4.874   3.174   4.602 -0.1775 -0.0280  0.0593
    1TYR    SC1  170   4.875   3.032   4.874 -0.1283  0.0726  0.0395
    1TYR    SC2  171   4.680   3.003   5.058  0.2317 -0.1431  0.4076
    1TYR    SC3  172   4.842   2.795   5.000  0.2660 -0.0123 -0.0006
    2TYR     BB  173   4.573   3.126   4.534 -0.2085 -0.2219 -0.0014
    2TYR    SC1  174   4.496   2.900   4.346 -0.2820  0.1012 -0.1868
    2TYR    SC2  175   4.340   2.799   4.151 -0.2218 -0.0649 -0.1505
    2TYR    SC3  176   4.554   2.660   4.238 -0.3852 -0.1086  0.2034
    3TYR     BB  177   4.339   3.124   4.772  0.1768 -0.0125 -0.1884
    3TYR    SC1  178   4.083   2.928   4.679 -0.0555  0.5301 -0.0863
    3TYR    SC2  179   4.047   2.733   4.497 -0.1027  0.2895  0.1732
    3TYR    SC3  180   3.846   2.905   4.551 -0.0996  0.3417  0.0246
    1TYR     BB  181   7.207   0.892   4.095  0.1050 -0.1834 -0.1215
    1TYR    SC1  182   7.039   1.146   4.096  0.4463  0.1830 -0.2019
    1TYR    SC2  183   6.840   1.285   4.215  0.2424 -0.1199 -0.1774
    1TYR    SC3  184   6.946   1.373   3.983  0.0421  0.0191 -0.2192
    2TYR     BB  185   6.960   0.693   4.289  0.2057 -0.0516 -0.0166
    2TYR    SC1  186   6.687   0.823   4.198  0.0731  0.1048  0.1452
    2TYR    SC2  187   6.496   0.974   4.314  0.0639  0.1300  0.0973
    2TYR    SC3  188   6.433   0.812   4.108 -0.0253 -0.2867  0.4353
    3TYR     BB  189   7.146   0.445   4.372 -0.2445 -0.3506 -0.0625
    3TYR    SC1  190   7.380   0.456   4.142 -0.4261  0.2309  0.1096
    3TYR    SC2  191   7.645   0.486   4.105 -0.3316 -0.2543  0.2951
    3TYR    SC3  192   7.475   0.520   3.898 -0.1183 -0.0526  0.1462
    1TYR     BB  193   6.844   1.751   4.560 -0.3441 -0.0125 -0.0099
    1TYR    SC1  194   6.605   1.945   4.630 -0.1147 -0.0079 -0.1263
    1TYR    SC2  195   6.341   2.003   4.629 -0.1725 -0.1750  0.4694
    1TYR    SC3  196   6.523   2.201   4.603 -0.3444 -0.0602  0.0398
    2TYR     BB  197   7.063   1.676   4.387  0.0800  0.0364  0.2129
    2TYR    SC1  198   7.190   1.386   4.509 -0.1328  0.0164  0.1732
    2TYR    SC2  199   7.322   1.277   4.718  0.2684 -0.0577 -0.1052
    2TYR    SC3  200   7.201   1.118   4.537  0.0688  0.0003 -0.0260
    3TYR     BB  201   7.233   1.773   4.172 -0.0568 -0.2745 -0.1381
    3TYR    SC1  202   7.324   1.677   3.889  0.0446 -0.2562 -0.0926
    3TYR    SC2  203   7.228   1.696   3.637 -0.0446  0.0052 -0.0426
    3TYR    SC3  204   7.490   1.738   3.685  0.0487 -0.4165 -0.1386
    1TYR     BB  205   5.854   1.337   3.701 -0.2265  0.0270  0.3075
    1TYR    SC1  206   5.714   1.369   3.414  0.0288  0.0818 -0.0147
    1TYR    SC2  207   5.736   1.454   3.159 -0.0639  0.1449 -0.0022
    1TYR    SC3  208   5.492   1.411   3.266 -0.0226 -0.3463 -0.0755
    2TYR     BB  209   5.743   1.468   3.880 -0.1255  0.1623  0.0203
    2TYR    SC1  210   5.431   1.452   3.839 -0.1941 -0.3834 -0.0280
    2TYR    SC2  211   5.222   1.532   3.688 -0.2090 -0.0097  0.1757
    2TYR    SC3  212   5.191   1.499   3.954  0.0221  0.1961  0.2326
    3TYR     BB  213   5.843   1.782   3.936 -0.0116  0.1132  0.0280
    3TYR    SC1  214   5.574   1.914   3.943  0.1200 -0.0137  0.3490
    3TYR    SC2  215   5.347   1.972   3.810  0.1016 -0.4168  0.1862
    3TYR    SC3  216   5.337   1.917   4.074  0.0479 -0.2156  0.2287
    1TYR     BB  217   3.687   3.770   4.620  0.0765 -0.1673  0.0529
    1TYR    SC1  218   3.712   3.517   4.787  0.0453  0.0370 -0.1799
    1TYR    SC2  219   3.656   3.258   4.736 -0.0658 -0.0090  0.1434
    1TYR    SC3  220   3.882   3.324   4.868  0.1326  0.0931 -0.2273
    2TYR     BB  221   3.582   3.993   4.881 -0.1260 -0.1331  0.0386
    2TYR    SC1  222   3.328   4.121   4.956  0.0925  0.0464 -0.0725
    2TYR    SC2  223   3.077   4.097   4.859  0.0202  0.2042  0.0681
    2TYR    SC3  224   3.141   4.305   5.019  0.1564 -0.0035  0.2939
    3TYR     BB  225   3.833   4.148   5.015 -0.0463  0.1757  0.1080
    3TYR    SC1  226   3.901   4.339   4.790 -0.1835  0.0472 -0.1711
    3TYR    SC2  227   4.023   4.575   4.740 -0.0619  0.0502  0.1116
    3TYR    SC3  228   4.006   4.387   4.546  0.0893  0.1817 -0.0329
    1TYR     BB  229   2.590   7.264   2.839 -0.0880  0.0814 -0.2606
    1TYR    SC1  230   2.706   7.219   3.122 -0.2807  0.0195 -0.0119
    1TYR    SC2  231   2.945   7.270   3.237 -0.2477  0.0292 -0.0841
    1TYR    SC3  232   2.724   7.244   3.390 -0.1777 -0.1131 -0.0053
    2TYR     BB  233   2.903   7.275   2.674  0.1488 -0.0277  0.0486
    2TYR    SC1  234   3.149   7.174   2.848  0.0189  0.2125  0.0256
    2TYR    SC2  235   3.110   6.931   2.959 -0.3858  0.1453 -0.2346
    2TYR    SC3  236   3.360   7.030   2.933 -0.2265 -0.1654  0.0250
    3TYR     BB  237   2.971   7.626   2.701  0.1179  0.3399  0.1000
    3TYR    SC1  238   2.865   7.631   3.006 -0.0673 -0.2241 -0.0012
    3TYR    SC2  239   2.686   7.723   3.184 -0.3038  0.0431 -0.3600
    3TYR    SC3  240   2.947   7.707   3.252 -0.4286 -0.2076  0.1203
    1TYR     BB  241   5.343   1.953   4.794  0.3211  0.1224  0.0502
    1TYR    SC1  242   5.130   1.854   4.568 -0.1352  0.2486 -0.1051
    1TYR    SC2  243   4.979   1.947   4.365 -0.1167 -0.1704 -0.3245
    1TYR    SC3  244   5.041   1.684   4.377  0.0202 -0.1270  0.1409
    2TYR     BB  245   5.432   1.771   5.030 -0.0223 -0.0627  0.0289
    2TYR    SC1  246   5.363   1.924   5.300  0.0685 -0.0493  0.1526
    2TYR    SC2  247   5.261   2.058   5.511  0.3392  0.1288  0.1771
    2TYR    SC3  248   5.527   2.060   5.466  0.3117 -0.1180 -0.0243
    3TYR     BB  249   5.473   1.472   5.056 -0.1495 -0.1326  0.2848
    3TYR    SC1  250   5.284   1.256   5.030 -0.1879 -0.2435  0.1959
    3TYR    SC2  251   5.193   1.005   5.071 -0.0808 -0.2997  0.0987
    3TYR    SC3  252   5.261   1.085   4.822 -0.1165 -0.1728  0.1286
    1TYR     BB  253   3.231   3.646   3.823  0.1955  0.1477 -0.1134
    1TYR    SC1  254   3.164   3.406   3.649  0.0151  0.0749 -0.1982
    1TYR    SC2  255   2.934   3.305   3.550 -0.1368  0.2013  0.0152
    1TYR    SC3  256   3.164   3.275   3.413 -0.3136  0.2567 -0.3073
    2TYR     BB  257   3.181   3.929   3.619  0.0359 -0.5019 -0.0370
    2TYR    SC1  258   3.400   4.111   3.692  0.1787 -0.2646  0.1094
    2TYR    SC2  259   3.481   4.257   3.904 -0.2081 -0.0015  0.0887
    2TYR    SC3  260   3.573   4.315   3.657 -0.1624  0.0361  0.1144
    3TYR     BB  261   2.973   4.138   3.476  0.0646 -0.1178 -0.3875
    3TYR    SC1  262   3.090   4.424   3.573  0.3585  0.0727 -0.0385
    3TYR    SC2  263   3.208   4.632   3.697  0.0872  0.2004  0.0127
    3TYR    SC3  264   2.944   4.641   3.639  0.1185 -0.0389 -0.1844
    1TYR     BB  265   1.360   4.085   4.197  0.0738 -0.0173  0.3535
    1TYR    SC1  266   1.118   4.041   4.006  0.0111 -0.2364  0.2141
    1TYR    SC2  267   1.176   3.922   3.771 -0.0044  0.0851  0.0396
    1TYR    SC3  268   0.953   4.071   3.795 -0.0413 -0.0038  0.2848
    2TYR     BB  269   1.435   4.340   4.293  0.3392  0.1865  0.1070
    2TYR    SC1  270   1.314   4.585   4.451 -0.0323 -0.1331  0.1293
    2TYR    SC2  271   1.198   4.823   4.399 -0.1897 -0.1728  0.2854
    2TYR    SC3  272   1.434   4.813   4.530  0.2523 -0.0664 -0.4328
    3TYR     BB  273   1.724   4.464   4.117 -0.1303 -0.0033 -0.2322
    3TYR    SC1  274   1.558   4.751   4.102 -0.1048  0.0710  0.0351
    3TYR    SC2  275   1.623   5.010   4.140 -0.1205  0.0672  0.0894
    3TYR    SC3  276   1.459   4.940   3.937 -0.0420  0.0890  0.0177
    1TYR     BB  277   7.000   1.301   5.534 -0.2368 -0.0732  0.1630
    1TYR    SC1  278   7.233   1.229   5.419 -0.0584 -0.0514 -0.1775
    1TYR    SC2  279   7.417   1.318   5.242  0.1581  0.0095  0.0690
    1TYR    SC3  280   7.492   1.155   5.444 -0.0876 -0.0743  0.0978
    2TYR     BB  281   6.941   1.535   5.720  0.0987  0.0746  0.0900
    2TYR    SC1  282   7.151   1.540   5.927  0.1749  0.4211  0.0543
    2TYR    SC2  283   7.301   1.672   6.110  0.6448  0.1551 -0.1179
    2TYR    SC3  284   7.374   1.425   6.027  0.1512  0.0508 -0.2882
    3TYR     BB  285   6.675   1.656   5.937  0.2868  0.0381  0.1223
    3TYR    SC1  286   6.850   1.848   6.164 -0.1296  0.0535  0.3631
    3TYR    SC2  287   7.013   1.956   6.351  0.3431 -0.0122  0.0132
    3TYR    SC3  288   6.910   2.111   6.155  0.3498 -0.0506 -0.0208
    1TYR     BB  289   2.962   7.403   2.138  0.0166  0.0180  0.0194
    1TYR    SC1  290   3.110   7.131   2.108 -0.2608 -0.1995 -0.0459
    1TYR    SC2  291   3.004   6.926   1.968 -0.3480 -0.0831 -0.1536
    1TYR    SC3  292   3.271   6.941   2.003 -0.3531 -0.3169  0.0213
    2TYR     BB  293   2.614   7.404   2.059 -0.2877 -0.2256 -0.0608
    2TYR    SC1  294   2.491   7.491   2.308 -0.1500 -0.3931 -0.1490
    2TYR    SC2  295   2.263   7.513   2.450  0.0358 -0.1101  0.1229
    2TYR    SC3  296   2.480   7.656   2.521  0.2231 -0.1723 -0.2883
    3TYR     BB  297   2.541   7.230   1.841  0.0143 -0.4089 -0.1340
    3TYR    SC1  298   2.623   6.982   1.748 -0.1944  0.0280 -0.0051
    3TYR    SC2  299   2.618   6.715   1.785 -0.0888  0.0352  0.0635
    3TYR    SC3  300   2.602   6.816   1.536  0.0886 -0.0431  0.0185
    1TYR     BB  301   0.933   3.754   4.553  0.3214  0.0198  0.2678
    1TYR    SC1  302   1.075   3.667   4.327 -0.0946 -0.0351 -0.1024
    1TYR    SC2  303   1.334   3.627   4.260 -0.0760  0.0825 -0.1026
    1TYR    SC3  304   1.139   3.584   4.078 -0.0761 -0.2299 -0.0351
    2TYR     BB  305   0.980   3.573   4.806  0.0410 -0.0055 -0.1182
    2TYR    SC1  306   1.296   3.533   4.737 -0.3013 -0.2446 -0.2786
    2TYR    SC2  307   1.541   3.623   4.667 -0.2022 -0.3039 -0.0219
    2TYR    SC3  308   1.478   3.362   4.635 -0.2839 -0.2623 -0.2184
    3TYR     BB  309   0.686   3.498   4.969 -0.0878 -0.2082 -0.2385
    3TYR    SC1  310   0.633   3.225   5.072 -0.3182  0.0006  0.1315
    3TYR    SC2  311   0.730   2.994   4.971 -0.2554  0.1459 -0.1533
    3TYR    SC3  312   0.659   3.008   5.231  0.0670 -0.0934 -0.0431
    1TYR     BB  313   2.254   6.894   3.119 -0.0559  0.1404  0.2338
    1TYR    SC1  314   2.186   6.563   3.119  0.2072  0.1187 -0.1341
    1TYR    SC2  315   2.107   6.312   3.180  0.1646  0.2261  0.2937
    1TYR    SC3  316   1.923   6.501   3.122  0.2034  0.1310 -0.1916
    2TYR     BB  317   2.230   6.956   3.434  0.1209  0.2008  0.2508
    2TYR    SC1  318   2.181   7.249   3.429 -0.2314  0.1132 -0.4131
    2TYR    SC2  319   2.117   7.484   3.545  0.0484 -0.0126  0.0266
    2TYR    SC3  320   2.334   7.467   3.386 -0.0439  0.0493 -0.1084
    3TYR     BB  321   2.134   6.697   3.575  0.0638 -0.2025 -0.0493
    3TYR    SC1  322   2.305   6.502   3.677 -0.0681  0.1062 -0.0694
    3TYR    SC2  323   2.460   6.286   3.626 -0.1284  0.0608 -0.0612
    3TYR    SC3  324   2.477   6.410   3.865 -0.1872 -0.0145 -0.0172
    1TYR     BB  325  -0.318   4.370   4.604 -0.0220 -0.0319 -0.1875
    1TYR    SC1  326  -0.628   4.338   4.534  0.1265  0.2583 -0.1963
    1TYR    SC2  327  -0.835   4.494   4.459 -0.0437  0.0631 -0.1419
    1TYR    SC3  328  -0.815   4.241   4.365 -0.0982 -0.0855  0.2233
    2TYR     BB  329  -0.217   4.286   4.278  0.0001 -0.1682 -0.2673
    2TYR    SC1  330  -0.112   4.489   4.079 -0.3945  0.2606 -0.1276
    2TYR    SC2  331   0.064   4.693   4.061  0.1206 -0.1489 -0.0113
    2TYR    SC3  332  -0.074   4.615   3.843  0.4774 -0.1431 -0.2507
    3TYR     BB  333  -0.046   3.967   4.288  0.1767  0.1321  0.0008
    3TYR    SC1  334  -0.317   3.796   4.364  0.2312 -0.1646  0.0787
    3TYR    SC2  335  -0.480   3.666   4.536  0.0528  0.1381  0.1487
    3TYR    SC3  336  -0.566   3.890   4.411  0.2551  0.0434 -0.1779
    1TYR     BB  337   3.089   4.806   5.101 -0.0698 -0.0832  0.0196
    1TYR    SC1  338   2.985   5.068   5.207  0.2200 -0.0106  0.1618
    1TYR    SC2  339   2.951   5.334   5.170  0.1997 -0.0376 -0.0246
    1TYR    SC3  340   2.815   5.206   5.366  0.1180  0.0673 -0.0119
    2TYR     BB  341   3.329   4.845   4.911  0.3350 -0.0789 -0.2889
    2TYR    SC1  342   3.413   5.115   4.960  0.3296 -0.2060  0.1671
    2TYR    SC2  343   3.434   5.281   5.172 -0.0500 -0.2264  0.2279
    2TYR    SC3  344   3.389   5.381   4.925 -0.2641 -0.2307  0.2623
    3TYR     BB  345   3.545   4.636   4.858 -0.3577 -0.3584 -0.0751
    3TYR    SC1  346   3.781   4.809   5.021  0.0211  0.2714 -0.0270
    3TYR    SC2  347   3.909   5.047   5.008  0.1916  0.2005  0.2585
    3TYR    SC3  348   3.786   4.971   5.237  0.0278  0.0674  0.1298
    1TYR     BB  349   3.785   3.679   5.215  0.2389 -0.2185  0.1195
    1TYR    SC1  350   3.912   3.463   5.294  0.0419  0.0503  0.1135
    1TYR    SC2  351   4.095   3.263   5.294 -0.1046 -0.0911 -0.1636
    1TYR    SC3  352   4.040   3.397   5.522 -0.0340 -0.3959  0.0385
    2TYR     BB  353   3.641   3.869   5.411 -0.0852  0.0714 -0.1026
    2TYR    SC1  354   3.495   4.136   5.419 -0.3200 -0.1494  0.2791
    2TYR    SC2  355   3.465   4.363   5.276 -0.0644 -0.2691  0.0206
    2TYR    SC3  356   3.293   4.305   5.476 -0.2189  0.0777 -0.0025
    3TYR     BB  357   3.487   3.704   5.631  0.0771 -0.1931 -0.0650
    3TYR    SC1  358   3.184   3.880   5.694  0.0556 -0.0317 -0.1590
    3TYR    SC2  359   3.101   3.855   5.950  0.2197  0.0637 -0.0943
    3TYR    SC3  360   2.931   3.946   5.761  0.0604 -0.1234 -0.0455
    1TYR     BB  361   3.841   4.738   3.542 -0.1152  0.0168 -0.1995
    1TYR    SC1  362   4.106   4.721   3.593  0.0320 -0.1423 -0.2562
    1TYR    SC2  363   4.323   4.832   3.478  0.1479  0.1315  0.1951
    1TYR    SC3  364   4.352   4.662   3.685 -0.0650  0.4090  0.4630
    2TYR     BB  365   3.761   5.114   3.439  0.1319  0.0776 -0.1958
    2TYR    SC1  366   4.048   5.202   3.375 -0.2443  0.2225 -0.1119
    2TYR    SC2  367   4.263   5.357   3.426  0.0197 -0.1714  0.0312
    2TYR    SC3  368   4.265   5.189   3.215 -0.0824 -0.2915  0.1241
    3TYR     BB  369   3.586   5.183   3.242  0.1494 -0.0957  0.1125
    3TYR    SC1  370   3.727   5.150   2.939  0.1482 -0.2006  0.0698
    3TYR    SC2  371   3.830   5.133   2.690  0.0752 -0.2254  0.0409
    3TYR    SC3  372   3.656   4.946   2.777 -0.1683 -0.0314 -0.0146
    1TYR     BB  373   4.928   2.844   3.925  0.3991 -0.1602  0.0567
    1TYR    SC1  374   4.772   3.112   3.975  0.1088  0.1066 -0.1506
    1TYR    SC2  375   4.507   3.160   3.969  0.0021 -0.4245 -0.4481
    1TYR    SC3  376   4.680   3.366   3.980 -0.4114 -0.0683  0.0016
    2TYR     BB  377   5.061   2.814   4.251 -0.0088 -0.1143  0.0486
    2TYR    SC1  378   5.276   3.038   4.171  0.1435  0.3987  0.0101
    2TYR    SC2  379   5.477   3.003   3.994  0.0513  0.0180 -0.0292
    2TYR    SC3  380   5.482   3.213   4.163  0.5302 -0.0300  0.0343
    3TYR     BB  381   5.110   2.696   4.511 -0.0504  0.0193  0.1712
    3TYR    SC1  382   5.303   2.461   4.521  0.2350 -0.3006 -0.2162
    3TYR    SC2  383   5.353   2.240   4.373  0.3750 -0.2095 -0.3080
    3TYR    SC3  384   5.524   2.313   4.569  0.1996 -0.3195 -0.1089
    1TYR     BB  385   5.286   0.781   4.451  0.2930  0.1356  0.0076
    1TYR    SC1  386   4.968   0.749   4.394  0.1200 -0.2329  0.1330
    1TYR    SC2  387   4.779   0.653   4.227  0.1363 -0.0219 -0.0117
    1TYR    SC3  388   4.725   0.681   4.490 -0.1280  0.2716 -0.0896
    2TYR     BB  389   5.423   1.005   4.302  0.1074  0.0364  0.4849
    2TYR    SC1  390   5.375   1.273   4.407  0.1945 -0.0574  0.2316
    2TYR    SC2  391   5.432   1.520   4.314 -0.1771 -0.0354  0.0379
    2TYR    SC3  392   5.419   1.476   4.580  0.3793  0.0268  0.0904
    3TYR     BB  393   5.521   1.029   4.018  0.1176 -0.0552 -0.0216
    3TYR    SC1  394   5.355   1.024   3.769  0.2143  0.0799 -0.0315
    3TYR    SC2  395   5.248   0.861   3.583 -0.1622  0.1525  0.1115
    3TYR    SC3  396   5.190   1.125   3.580 -0.1169  0.1656  0.2893
    1TYR     BB  397   1.115   6.016   1.496 -0.1166  0.0831 -0.1254
    1TYR    SC1  398   1.286   5.809   1.416  0.0063  0.1510  0.2175
    1TYR    SC2  399   1.217   5.598   1.263 -0.2645  0.3377  0.0722
    1TYR    SC3  400   1.452   5.596   1.397 -0.0947  0.0999 -0.2118
    2TYR     BB  401   1.255   6.140   1.785 -0.0650  0.1508  0.0063
    2TYR    SC1  402   1.545   5.993   1.790 -0.2189 -0.0532  0.1519
    2TYR    SC2  403   1.798   5.976   1.696 -0.2848  0.2788 -0.1111
    2TYR    SC3  404   1.685   5.764   1.819 -0.0070  0.0013 -0.3134
    3TYR     BB  405   1.293   6.414   1.866  0.1849  0.3159 -0.0551
    3TYR    SC1  406   1.256   6.516   2.155  0.2332 -0.0205 -0.0727
    3TYR    SC2  407   1.333   6.713   2.323  0.0082  0.1306 -0.1398
    3TYR    SC3  408   1.102   6.581   2.367  0.2459 -0.2577  0.0128
    1TYR     BB  409   5.336   2.804   4.941 -0.0129 -0.1521 -0.0091
    1TYR    SC1  410   5.273   2.568   5.070  0.0208  0.0069 -0.1681
    1TYR    SC2  411   5.433   2.357   5.125 -0.1092 -0.0674 -0.0669
    1TYR    SC3  412   5.165   2.330   5.135 -0.1288  0.1711  0.2193
    2TYR     BB  413   5.685   2.713   4.835  0.2025  0.2294 -0.0220
    2TYR    SC1  414   5.691   2.751   4.568 -0.0741 -0.1999  0.2512
    2TYR    SC2  415   5.798   2.928   4.395 -0.0772  0.0610  0.5062
    2TYR    SC3  416   5.653   2.720   4.303  0.2678 -0.0472  0.1773
    3TYR     BB  417   5.981   2.790   4.941  0.0416  0.0394  0.0317
    3TYR    SC1  418   6.027   2.544   5.140  0.2636 -0.2895 -0.2101
    3TYR    SC2  419   5.919   2.343   5.285  0.0207  0.1416  0.2424
    3TYR    SC3  420   6.124   2.487   5.385  0.2787  0.0521 -0.1310
    1TYR     BB  421   7.055   1.810   5.317  0.2992 -0.2877  0.2157
    1TYR    SC1  422   7.331   1.780   5.431  0.3066  0.2073 -0.0091
    1TYR    SC2  423   7.476   1.615   5.589  0.4079  0.1866 -0.1216
    1TYR    SC3  424   7.597   1.753   5.390  0.2810  0.2071 -0.1858
    2TYR     BB  425   6.995   1.666   5.039  0.2485  0.0680  0.0967
    2TYR    SC1  426   7.308   1.681   4.925 -0.0078  0.2019 -0.0427
    2TYR    SC2  427   7.490   1.755   4.740 -0.0996 -0.1441 -0.2829
    2TYR    SC3  428   7.570   1.633   4.967 -0.0168 -0.1156 -0.2965
    3TYR     BB  429   6.944   1.372   5.046  0.2464 -0.0743 -0.0020
    3TYR    SC1  430   6.817   1.266   4.812 -0.6491 -0.4294  0.4637
    3TYR    SC2  431   6.667   1.302   4.591 -0.1051  0.1522  0.1513
    3TYR    SC3  432   6.795   1.068   4.630 -0.3012 -0.0007 -0.0850
    1TYR     BB  433   5.508   3.672   5.610 -0.1802 -0.0678 -0.0950
    1TYR    SC1  434   5.338   3.676   5.415  0.1666 -0.0950 -0.4524
    1TYR    SC2  435   5.246   3.765   5.177 -0.2750  0.2393 -0.1754
    1TYR    SC3  436   5.073   3.671   5.362  0.0651 -0.0617  0.0048
    2TYR     BB  437   5.563   3.504   5.843  0.2512  0.3772 -0.1515
    2TYR    SC1  438   5.506   3.200   5.816 -0.1321 -0.0552 -0.2241
    2TYR    SC2  439   5.284   3.070   5.897 -0.2777  0.2250 -0.1570
    2TYR    SC3  440   5.512   2.933   5.853 -0.4003 -0.0365 -0.0071
    3TYR     BB  441   5.416   3.553   6.123  0.1851  0.1853 -0.0926
    3TYR    SC1  442   5.223   3.372   6.220  0.0794  0.1486  0.1341
    3TYR    SC2  443   5.025   3.242   6.350  0.0395  0.3549  0.2865
    3TYR    SC3  444   5.281   3.161   6.379 -0.0393 -0.1279 -0.1759
    1TYR     BB  445   7.844   4.188   5.395 -0.0386 -0.1589 -0.2760
    1TYR    SC1  446   7.703   4.455   5.523  0.1379 -0.3465  0.0538
    1TYR    SC2  447   7.476   4.564   5.620  0.2511  0.0348 -0.0875
    1TYR    SC3  448   7.703   4.576   5.765  0.2795  0.0459 -0.1329
    2TYR     BB  449   8.133   4.331   5.384  0.0155  0.1639 -0.0282
    2TYR    SC1  450   8.312   4.126   5.208 -0.0088 -0.2807  0.1990
    2TYR    SC2  451   8.400   4.010   4.981  0.2002  0.0088  0.1243
    2TYR    SC3  452   8.514   3.946   5.217  0.1698 -0.0899  0.1129
    3TYR     BB  453   8.243   4.544   5.517 -0.1580  0.0039 -0.1280
    3TYR    SC1  454   8.072   4.829   5.523 -0.0138  0.3075  0.3202
    3TYR    SC2  455   8.023   5.079   5.612 -0.1180  0.3741  0.0852
    3TYR    SC3  456   7.857   4.965   5.433 -0.0490  0.1502  0.1602
    1TYR     BB  457   6.119   4.332   4.979  0.3031 -0.2346  0.0192
    1TYR    SC1  458   5.882   4.554   5.071  0.1759  0.1721 -0.1527
    1TYR    SC2  459   5.685   4.729   5.010 -0.0372  0.0639  0.1911
    1TYR    SC3  460   5.875   4.796   5.190  0.1031  0.0779  0.0405
    2TYR     BB  461   6.012   4.058   4.831  0.0175 -0.1850  0.2378
    2TYR    SC1  462   5.846   3.824   4.909 -0.1789  0.0879 -0.1947
    2TYR    SC2  463   5.650   3.641   4.936  0.1451 -0.2291  0.1522
    2TYR    SC3  464   5.737   3.779   5.151  0.1467  0.0827 -0.0414
    3TYR     BB  465   5.916   4.127   4.514  0.0770 -0.1220 -0.0097
    3TYR    SC1  466   6.211   4.218   4.367  0.0109 -0.0944 -0.2488
    3TYR    SC2  467   6.437   4.072   4.340  0.1229  0.0957 -0.3659
    3TYR    SC3  468   6.442   4.338   4.295 -0.0487  0.1625 -0.0295
    1TYR     BB  469   6.225   0.201   3.451  0.1091 -0.1148 -0.0733
    1TYR    SC1  470   6.143   0.341   3.187 -0.2113 -0.0976 -0.2327
    1TYR    SC2  471   6.106   0.587   3.082  0.1450  0.0321 -0.0726
    1TYR    SC3  472   6.101   0.370   2.922  0.1239  0.1718 -0.2654
    2TYR     BB  473   6.240   0.200   3.774 -0.2080 -0.0211  0.1019
    2TYR    SC1  474   6.380  -0.082   3.808  0.3414  0.1724  0.2033
    2TYR    SC2  475   6.608  -0.162   3.688  0.2165 -0.0948  0.1340
    2TYR    SC3  476   6.548  -0.251   3.935  0.0881 -0.1975  0.0671
    3TYR     BB  477   6.073   0.351   4.027  0.2294 -0.1109  0.1133
    3TYR    SC1  478   6.054   0.584   4.183  0.2653 -0.0888 -0.0418
    3TYR    SC2  479   6.102   0.733   4.402  0.0328 -0.1738  0.0717
    3TYR    SC3  480   5.871   0.764   4.266  0.1037 -0.2379 -0.0662
    1TYR     BB  481   1.825   3.897   4.984  0.4027  0.1073  0.0479
    1TYR    SC1  482   1.532   3.921   5.103  0.0442  0.0644  0.3841
    1TYR    SC2  483   1.283   3.821   5.137 -0.0071 -0.0361 -0.1618
    1TYR    SC3  484   1.330   4.084   5.177 -0.1550 -0.0458  0.1057
    2TYR     BB  485   1.855   3.572   5.074 -0.3384  0.1172 -0.0774
    2TYR    SC1  486   1.614   3.515   5.247  0.0864  0.2424  0.1130
    2TYR    SC2  487   1.389   3.445   5.380  0.1567  0.5086  0.3857
    2TYR    SC3  488   1.548   3.642   5.476  0.2756  0.6329 -0.0366
    3TYR     BB  489   1.988   3.333   4.851  0.0769  0.0821  0.0527
    3TYR    SC1  490   2.232   3.224   4.959  0.1722  0.0452 -0.0388
    3TYR    SC2  491   2.498   3.239   5.000  0.1562  0.1547  0.0317
    3TYR    SC3  492   2.375   2.998   4.995  0.2396  0.1097  0.1062
    1TYR     BB  493   6.160   3.316   4.243  0.1163 -0.3787 -0.0745
    1TYR    SC1  494   6.307   3.192   4.017 -0.2867  0.1095  0.0903
    1TYR    SC2  495   6.357   3.059   3.788 -0.1671 -0.1719  0.2736
    1TYR    SC3  496   6.457   3.307   3.824  0.1108 -0.2634  0.1608
    2TYR     BB  497   6.307   3.518   4.350 -0.1083  0.3802 -0.1152
    2TYR    SC1  498   6.610   3.565   4.261  0.1425  0.0760  0.2511
    2TYR    SC2  499   6.751   3.736   4.107 -0.0117 -0.0488 -0.0373
    2TYR    SC3  500   6.865   3.507   4.192 -0.0173 -0.1211 -0.2192
    3TYR     BB  501   6.282   3.708   4.645  0.0624  0.0411  0.3371
    3TYR    SC1  502   6.199   3.480   4.821  0.4344 -0.1721  0.0351
    3TYR    SC2  503   6.074   3.240   4.820 -0.0386  0.0598 -0.0768
    3TYR    SC3  504   6.035   3.412   5.025  0.1598  0.1124 -0.0804
    1TYR     BB  505   7.159   0.955   5.864  0.1006 -0.0833 -0.1175
    1TYR    SC1  506   7.120   0.786   5.644 -0.1106 -0.1746 -0.0114
    1TYR    SC2  507   7.221   0.667   5.423 -0.0562 -0.2596  0.0582
    1TYR    SC3  508   7.017   0.551   5.557  0.1392 -0.3907  0.2503
    2TYR     BB  509   6.843   1.165   5.987 -0.2313 -0.0822  0.1595
    2TYR    SC1  510   6.652   1.092   5.771 -0.1165 -0.0191  0.2036
    2TYR    SC2  511   6.419   1.045   5.643 -0.2319  0.1910  0.3284
    2TYR    SC3  512   6.582   0.839   5.705 -0.2096  0.0745 -0.0757
    3TYR     BB  513   6.856   1.214   6.215  0.2035 -0.1424 -0.0322
    3TYR    SC1  514   6.819   1.115   6.517  0.2161 -0.0345 -0.0052
    3TYR    SC2  515   6.795   0.964   6.739  0.1731 -0.2005 -0.1199
    3TYR    SC3  516   6.575   1.068   6.622  0.2091  0.0223  0.0039
    1TYR     BB  517   6.071   0.910   3.794  0.0083  0.0827 -0.0305
    1TYR    SC1  518   6.290   1.134   3.822  0.6732 -0.1692 -0.0478
    1TYR    SC2  519   6.365   1.384   3.756 -0.0448  0.0692 -0.0742
    1TYR    SC3  520   6.463   1.268   3.979  0.1534  0.4503  0.0484
    2TYR     BB  521   6.128   0.704   3.605 -0.0111  0.2407  0.1204
    2TYR    SC1  522   5.868   0.718   3.422 -0.0571  0.0504 -0.2143
    2TYR    SC2  523   5.635   0.661   3.298 -0.1336 -0.1221  0.0005
    2TYR    SC3  524   5.684   0.912   3.384 -0.2899 -0.1081  0.0527
    3TYR     BB  525   6.432   0.619   3.553 -0.3183  0.1962  0.0090
    3TYR    SC1  526   6.624   0.847   3.624 -0.3730  0.4087 -0.2341
    3TYR    SC2  527   6.776   0.979   3.804 -0.0108 -0.1892 -0.0659
    3TYR    SC3  528   6.805   1.028   3.540 -0.1622  0.3123 -0.0025
    1TYR     BB  529   3.118   5.599   3.924 -0.0233 -0.1666  0.1006
    1TYR    SC1  530   3.104   5.330   3.991  0.2883 -0.2122 -0.4109
    1TYR    SC2  531   3.052   5.071   3.931  0.0012 -0.2432 -0.0653
    1TYR    SC3  532   3.046   5.155   4.188 -0.0897  0.1458 -0.1849
    2TYR     BB  533   3.328   5.665   3.641 -0.1473  0.2117 -0.1338
    2TYR    SC1  534   3.658   5.563   3.649 -0.0345 -0.2866 -0.0310
    2TYR    SC2  535   3.922   5.546   3.704 -0.0236 -0.0706 -0.0077
    2TYR    SC3  536   3.838   5.676   3.483 -0.1177  0.0109  0.0748
    3TYR     BB  537   3.236   5.732   3.427 -0.2372 -0.0764  0.3917
    3TYR    SC1  538   3.409   6.006   3.353  0.1131  0.2499 -0.0887
    3TYR    SC2  539   3.669   6.071   3.386  0.1742  0.0767 -0.2065
    3TYR    SC3  540   3.514   6.213   3.216  0.2385  0.0725 -0.2693
    1TYR     BB  541   2.957   3.168   5.148  0.0905 -0.1365  0.1118
    1TYR    SC1  542   3.168   2.980   5.124 -0.1009 -0.0183 -0.0662
    1TYR    SC2  543   3.302   2.746   5.136  0.1917  0.1484  0.0917
    1TYR    SC3  544   3.335   2.910   4.924  0.1818  0.1586  0.0980
    2TYR     BB  545   2.946   3.341   5.379  0.3198 -0.1724 -0.1252
    2TYR    SC1  546   3.163   3.369   5.573  0.1692  0.1048 -0.1078
    2TYR    SC2  547   3.133   3.436   5.833 -0.1913 -0.0237 -0.1084
    2TYR    SC3  548   3.289   3.226   5.765  0.1325  0.1798 -0.0269
    3TYR     BB  549   2.692   3.578   5.407 -0.1108 -0.0833  0.2785
    3TYR    SC1  550   2.839   3.826   5.354 -0.0122 -0.1047  0.3594
    3TYR    SC2  551   2.877   4.092   5.325  0.0831 -0.1060  0.4661
    3TYR    SC3  552   3.082   3.920   5.285 -0.1294 -0.2282 -0.3133
    1TYR     BB  553   2.740   5.806   3.470 -0.0698  0.0416  0.0018
    1TYR    SC1  554   2.641   5.580   3.668 -0.1061 -0.0676  0.1311
    1TYR    SC2  555   2.602   5.434   3.891 -0.1164  0.1227  0.2570
    1TYR    SC3  556   2.405   5.455   3.707 -0.0577 -0.1523  0.1562
    2TYR     BB  557   2.462   5.859   3.263 -0.3029 -0.0613 -0.3375
    2TYR    SC1  558   2.580   6.061   3.048 -0.3867 -0.1709 -0.3017
    2TYR    SC2  559   2.474   6.288   2.949 -0.1505 -0.1403 -0.4967
    2TYR    SC3  560   2.684   6.173   2.825  0.2186 -0.0557  0.0123
    3TYR     BB  561   2.209   5.861   3.385  0.1020  0.0150  0.0355
    3TYR    SC1  562   2.084   5.791   3.637 -0.1360 -0.0182  0.0416
    3TYR    SC2  563   1.820   5.788   3.689 -0.1155  0.1540  0.1646
    3TYR    SC3  564   1.996   5.833   3.888 -0.0050  0.2500  0.0466
    1TYR     BB  565   4.162   3.951   4.311 -0.2206  0.0019 -0.2603
    1TYR    SC1  566   3.864   3.874   4.168  0.0207 -0.0992  0.2039
    1TYR    SC2  567   3.669   3.870   3.982  0.2359 -0.0699 -0.0304
    1TYR    SC3  568   3.725   3.647   4.123 -0.1441 -0.0068  0.2400
    2TYR     BB  569   4.408   3.735   4.173  0.1738  0.2323  0.0925
    2TYR    SC1  570   4.211   3.565   3.986  0.3028  0.0222 -0.1627
    2TYR    SC2  571   4.116   3.521   3.737 -0.0534  0.0610 -0.0415
    2TYR    SC3  572   4.033   3.366   3.942  0.3143 -0.0367  0.0425
    3TYR     BB  573   4.743   3.816   4.103  0.2494 -0.0311  0.0636
    3TYR    SC1  574   4.780   4.050   4.349 -0.1352 -0.0167  0.1303
    3TYR    SC2  575   4.919   4.130   4.566  0.1537 -0.0514 -0.0359
    3TYR    SC3  576   4.784   4.311   4.418 -0.0013 -0.0202  0.1393
    1TYR     BB  577   2.044   2.842   5.405  0.2481 -0.0611  0.0033
    1TYR    SC1  578   2.103   2.886   5.679 -0.0584 -0.0541 -0.1188
    1TYR    SC2  579   2.036   2.741   5.897  0.1978 -0.0884 -0.0593
    1TYR    SC3  580   2.247   2.910   5.906  0.1137  0.0297 -0.2341
    2TYR     BB  581   1.840   3.088   5.309 -0.1698 -0.4433 -0.0679
    2TYR    SC1  582   1.662   3.110   5.582 -0.1382 -0.0021 -0.1437
    2TYR    SC2  583   1.460   3.187   5.743 -0.2764 -0.1859 -0.2244
    2TYR    SC3  584   1.644   3.011   5.832 -0.1949 -0.0785 -0.1775
    3TYR     BB  585   1.659   2.987   5.107 -0.0204 -0.2605 -0.1854
    3TYR    SC1  586   1.380   3.046   5.063 -0.0994  0.0431  0.1305
    3TYR    SC2  587   1.153   3.192   5.052 -0.0562  0.0970 -0.1257
    3TYR    SC3  588   1.226   3.040   4.841  0.0369 -0.0903  0.0372
    1TYR     BB  589   0.333   4.250   4.156  0.0170 -0.1233 -0.1101
    1TYR    SC1  590   0.286   4.431   4.459  0.1556  0.2860 -0.1509
    1TYR    SC2  591   0.108   4.602   4.568 -0.0802 -0.2307  0.3346
    1TYR    SC3  592   0.373   4.638   4.610 -0.0895  0.2226  0.0857
    2TYR     BB  593   0.598   4.108   4.168 -0.0877 -0.3142 -0.1295
    2TYR    SC1  594   0.783   4.236   4.385  0.1677  0.0479  0.1604
    2TYR    SC2  595   0.906   4.453   4.488  0.3082 -0.0224  0.1438
    2TYR    SC3  596   0.729   4.314   4.638 -0.0084  0.2715  0.0584
    3TYR     BB  597   0.650   3.845   4.123 -0.0844 -0.0479 -0.1090
    3TYR    SC1  598   0.331   3.710   4.061 -0.1636  0.1823  0.0007
    3TYR    SC2  599   0.203   3.567   3.871 -0.0346 -0.0266  0.0665
    3TYR    SC3  600   0.154   3.520   4.133  0.3837 -0.3280  0.1034
    1TYR     BB  601   5.662   0.584   3.842 -0.0382  0.4461 -0.2244
    1TYR    SC1  602   5.731   0.363   3.640 -0.5811 -0.2789  0.0575
    1TYR    SC2  603   5.728   0.244   3.398  0.2670 -0.1822 -0.0391
    1TYR    SC3  604   5.730   0.094   3.623  0.0278 -0.2894 -0.1047
    2TYR     BB  605   5.486   0.506   4.067 -0.1818  0.0301 -0.1633
    2TYR    SC1  606   5.623   0.337   4.286 -0.1386 -0.0499 -0.0531
    2TYR    SC2  607   5.851   0.313   4.428 -0.0355  0.1176 -0.1844
    2TYR    SC3  608   5.667   0.115   4.434 -0.0363  0.1204  0.1791
    3TYR     BB  609   5.208   0.616   3.968  0.2997  0.0088 -0.2186
    3TYR    SC1  610   5.189   0.441   3.706 -0.1219  0.0651  0.0421
    3TYR    SC2  611   5.282   0.301   3.495  0.2317 -0.1837  0.3476
    3TYR    SC3  612   5.060   0.218   3.624 -0.0269  0.0083  0.0457
    1TYR     BB  613   6.613   0.535   5.221 -0.1337  0.0296  0.0954
    1TYR    SC1  614   6.351   0.666   5.287  0.0403 -0.2425 -0.0561
    1TYR    SC2  615   6.163   0.858   5.316  0.3155  0.0091  0.1464
    1TYR    SC3  616   6.124   0.614   5.425 -0.3852 -0.3480 -0.7370
    2TYR     BB  617   6.803   0.920   5.179 -0.1780  0.1396  0.0463
    2TYR    SC1  618   7.052   0.860   5.019 -0.1004 -0.3320 -0.0454
    2TYR    SC2  619   7.305   0.950   4.997 -0.1433 -0.1683  0.1031
    2TYR    SC3  620   7.236   0.713   4.887  0.1131 -0.2935  0.2001
    3TYR     BB  621   6.566   1.078   5.165  0.0746 -0.1855  0.1794
    3TYR    SC1  622   6.394   1.053   4.890 -0.1367 -0.1757  0.2826
    3TYR    SC2  623   6.268   1.039   4.652 -0.1657  0.3475  0.2530
    3TYR    SC3  624   6.151   0.937   4.873 -0.3808  0.3232  0.1315
    1TYR     BB  625   5.521   3.391   3.502  0.0745  0.1662  0.1964
    1TYR    SC1  626   5.380   3.121   3.429  0.1393 -0.1996 -0.2309
    1TYR    SC2  627   5.306   2.917   3.590  0.0518 -0.0107 -0.0255
    1TYR    SC3  628   5.252   2.907   3.326 -0.1016 -0.1786  0.0098
    2TYR     BB  629   5.776   3.209   3.672  0.2357  0.1328 -0.0579
    2TYR    SC1  630   5.754   2.942   3.592  0.0831  0.2754  0.2338
    2TYR    SC2  631   5.694   2.794   3.374  0.1189  0.3260  0.1893
    2TYR    SC3  632   5.729   2.674   3.613  0.1457  0.2628  0.1538
    3TYR     BB  633   5.965   3.404   3.773 -0.1302 -0.0868 -0.0038
    3TYR    SC1  634   6.168   3.452   3.521 -0.1120  0.0573 -0.0993
    3TYR    SC2  635   6.323   3.654   3.430  0.2002 -0.1266  0.0067
    3TYR    SC3  636   6.342   3.408   3.319 -0.0143 -0.1545  0.0265
    1TYR     BB  637   2.246   5.225   2.757  0.0729 -0.3362  0.1536
    1TYR    SC1  638   1.951   5.307   2.749  0.1631 -0.0331  0.1294
    1TYR    SC2  639   1.716   5.429   2.803  0.0768 -0.1309 -0.0134
    1TYR    SC3  640   1.751   5.303   2.567  0.3051 -0.0436 -0.0301
    2TYR     BB  641   2.303   5.281   2.415 -0.0227 -0.1522  0.0925
    2TYR    SC1  642   2.082   5.214   2.215  0.0756  0.0331 -0.4687
    2TYR    SC2  643   1.846   5.288   2.107 -0.2779 -0.2180  0.0768
    2TYR    SC3  644   1.969   5.063   2.022 -0.2626 -0.1225 -0.1633
    3TYR     BB  645   2.508   5.492   2.256 -0.0355 -0.1010  0.4243
    3TYR    SC1  646   2.502   5.754   2.345  0.0217 -0.0509  0.2159
    3TYR    SC2  647   2.478   5.998   2.458  0.3377  0.0261  0.1280
    3TYR    SC3  648   2.593   5.972   2.215  0.3181 -0.2121  0.1410
    1TYR     BB  649   5.102   3.533   4.309  0.0231  0.1156 -0.0192
    1TYR    SC1  650   5.146   3.501   4.035  0.1895 -0.0369  0.2175
    1TYR    SC2  651   5.124   3.329   3.828 -0.3546  0.0862  0.1543
    1TYR    SC3  652   5.116   3.595   3.784  0.2726  0.1438  0.2732
    2TYR     BB  653   5.118   3.678   4.527 -0.2056  0.3514 -0.0078
    2TYR    SC1  654   5.097   3.532   4.774  0.2791  0.1070 -0.1093
    2TYR    SC2  655   5.211   3.368   4.955 -0.0804 -0.0427 -0.0086
    2TYR    SC3  656   4.955   3.447   4.987 -0.0776  0.1165 -0.3337
    3TYR     BB  657   5.448   3.866   4.509 -0.0242  0.2662  0.7108
    3TYR    SC1  658   5.452   4.007   4.760  0.1037 -0.0718  0.0183
    3TYR    SC2  659   5.513   4.239   4.884 -0.2418 -0.0308  0.1249
    3TYR    SC3  660   5.256   4.154   4.875 -0.2363 -0.0410 -0.5512
    1TYR     BB  661   6.528   3.539   5.203  0.1116  0.1007 -0.1070
    1TYR    SC1  662   6.428   3.282   5.160 -0.0069 -0.0234  0.1385
    1TYR    SC2  663   6.564   3.058   5.095  0.0261 -0.0153  0.1785
    1TYR    SC3  664   6.309   3.041   5.182 -0.0722 -0.0157 -0.0961
    2TYR     BB  665   6.400   3.782   5.151  0.0390  0.0490  0.1581
    2TYR    SC1  666   6.557   3.966   4.926 -0.0727  0.2222 -0.0548
    2TYR    SC2  667   6.531   4.181   4.765 -0.3145  0.0734 -0.2241
    2TYR    SC3  668   6.694   3.978   4.694  0.2292  0.3556  0.1223
    3TYR     BB  669   6.197   3.919   5.260  0.0671  0.0559 -0.0847
    3TYR    SC1  670   6.232   4.171   5.433 -0.2031  0.0060 -0.2883
    3TYR    SC2  671   6.143   4.421   5.481  0.0805  0.0955 -0.2085
    3TYR    SC3  672   6.262   4.279   5.678 -0.0727 -0.1022 -0.2547
    1TYR     BB  673   4.834   1.404   5.227 -0.1531 -0.1138  0.0381
    1TYR    SC1  674   4.988   1.507   5.472  0.0102 -0.0570  0.0210
    1TYR    SC2  675   5.054   1.698   5.651  0.1119  0.0432 -0.1210
    1TYR    SC3  676   5.017   1.444   5.733 -0.3080  0.1703  0.1192
    2TYR     BB  677   4.940   1.619   4.949  0.0583  0.0257  0.2649
    2TYR    SC1  678   4.890   1.408   4.729  0.2304 -0.1339 -0.0232
    2TYR    SC2  679   4.818   1.148   4.735 -0.1654 -0.0300  0.2503
    2TYR    SC3  680   4.945   1.248   4.518 -0.5718 -0.3099 -0.1409
    3TYR     BB  681   4.881   1.936   5.031  0.0250  0.4588  0.1945
    3TYR    SC1  682   4.854   1.929   5.337 -0.0024  0.2774  0.2002
    3TYR    SC2  683   4.661   1.890   5.523 -0.0467  0.0790  0.1159
    3TYR    SC3  684   4.819   2.108   5.536 -0.0821  0.0938  0.3569
    1TYR     BB  685   3.813   4.612   4.103  0.0711  0.2737  0.2922
    1TYR    SC1  686   3.844   4.762   4.330 -0.0577 -0.3547  0.1475
    1TYR    SC2  687   3.742   4.947   4.499 -0.0938  0.0360 -0.2772
    1TYR    SC3  688   4.010   4.921   4.472 -0.0855 -0.1179 -0.0758
    2TYR     BB  689   4.016   4.404   4.042  0.2255  0.0205  0.1790
    2TYR    SC1  690   3.988   4.233   3.773  0.3215  0.2369 -0.1920
    2TYR    SC2  691   3.905   4.078   3.568 -0.1948 -0.0120  0.1743
    2TYR    SC3  692   4.016   3.965   3.786 -0.5106  0.1295  0.4175
    3TYR     BB  693   4.312   4.430   4.082 -0.3708 -0.0955 -0.0085
    3TYR    SC1  694   4.422   4.677   4.300  0.1126 -0.0230  0.0227
    3TYR    SC2  695   4.663   4.741   4.403 -0.0346  0.1494  0.2744
    3TYR    SC3  696   4.447   4.730   4.564 -0.2211  0.1299  0.0296
    1TYR     BB  697   6.430   0.062   4.385 -0.0099 -0.0682 -0.2272
    1TYR    SC1  698   6.614   0.043   4.631  0.1239 -0.1400 -0.1851
    1TYR    SC2  699   6.646   0.185   4.858  0.3373 -0.1349 -0.2157
    1TYR    SC3  700   6.861   0.117   4.710  0.2005 -0.1333 -0.4209
    2TYR     BB  701   6.521   0.370   4.259 -0.1954  0.1044 -0.4134
    2TYR    SC1  702   6.607   0.512   4.580 -0.1641 -0.1177  0.0318
    2TYR    SC2  703   6.526   0.660   4.791  0.0124 -0.1227  0.1054
    2TYR    SC3  704   6.787   0.598   4.761 -0.0066 -0.1035 -0.1280
    3TYR     BB  705   6.591   0.350   4.053 -0.2944 -0.1464 -0.2735
    3TYR    SC1  706   6.839   0.441   3.850 -0.0983  0.0177  0.0417
    3TYR    SC2  707   7.018   0.587   3.710 -0.1336 -0.0190 -0.0423
    3TYR    SC3  708   7.069   0.328   3.766 -0.0579  0.0322  0.1319
    1TYR     BB  709   1.679   5.493   4.114 -0.2292 -0.0382  0.1101
    1TYR    SC1  710   1.517   5.400   3.843 -0.3067  0.2765  0.1312
    1TYR    SC2  711   1.262   5.337   3.784 -0.2583  0.3265 -0.1504
    1TYR    SC3  712   1.462   5.258   3.620 -0.0916  0.2918  0.0645
    2TYR     BB  713   2.013   5.363   3.991  0.1076  0.2035  0.3912
    2TYR    SC1  714   2.240   5.230   4.186 -0.0713 -0.1614  0.0564
    2TYR    SC2  715   2.329   5.179   4.436 -0.0296 -0.1858  0.0367
    2TYR    SC3  716   2.502   5.182   4.229 -0.0764 -0.2457 -0.0040
    3TYR     BB  717   1.956   5.261   3.716 -0.0682  0.1439  0.2487
    3TYR    SC1  718   1.937   5.427   3.455  0.1063 -0.0651 -0.1796
    3TYR    SC2  719   1.727   5.473   3.292 -0.0430 -0.2385 -0.0412
    3TYR    SC3  720   1.949   5.355   3.195 -0.0599 -0.1753 -0.1590
    1TYR     BB  721   5.950   3.471   5.505 -0.1155  0.2456  0.0989
    1TYR    SC1  722   5.742   3.286   5.385  0.0796 -0.0754  0.2003
    1TYR    SC2  723   5.660   3.096   5.211  0.1029  0.0485  0.0509
    1TYR    SC3  724   5.527   3.330   5.227  0.1842  0.0917  0.1015
    2TYR     BB  725   6.206   3.531   5.571 -0.0506 -0.2046 -0.1554
    2TYR    SC1  726   6.352   3.770   5.743 -0.3569  0.1600  0.0396
    2TYR    SC2  727   6.574   3.783   5.897 -0.1956 -0.0647 -0.1638
    2TYR    SC3  728   6.350   3.917   5.970 -0.0950 -0.0872  0.2105
    3TYR     BB  729   6.437   3.320   5.646  0.1912  0.0626 -0.0487
    3TYR    SC1  730   6.575   3.311   5.931 -0.3145 -0.2323 -0.0010
    3TYR    SC2  731   6.601   3.353   6.197  0.2285 -0.0513 -0.0669
    3TYR    SC3  732   6.670   3.114   6.090 -0.2779 -0.2315 -0.0216
    1TYR     BB  733   6.918   2.589   4.411 -0.0503 -0.1533 -0.0819
    1TYR    SC1  734   7.103   2.776   4.268  0.1833  0.1182  0.1572
    1TYR    SC2  735   7.275   2.976   4.210  0.0899  0.0621 -0.3706
    1TYR    SC3  736   7.324   2.726   4.120  0.0950 -0.1182  0.0995
    2TYR     BB  737   6.643   2.599   4.322  0.2137  0.1184  0.0431
    2TYR    SC1  738   6.450   2.785   4.501 -0.2392 -0.1736  0.1911
    2TYR    SC2  739   6.210   2.910   4.511 -0.2190 -0.1117 -0.0451
    2TYR    SC3  740   6.386   2.939   4.714 -0.4147 -0.1676  0.1359
    3TYR     BB  741   6.641   2.737   4.001  0.1266 -0.5904 -0.1875
    3TYR    SC1  742   6.617   2.575   3.770  0.1022  0.3592 -0.1464
    3TYR    SC2  743   6.489   2.481   3.552  0.2807  0.0238 -0.1157
    3TYR    SC3  744   6.661   2.322   3.686  0.1492  0.2096  0.2940
    1TYR     BB  745   1.150   5.953   2.828  0.1526 -0.2268 -0.0577
    1TYR    SC1  746   0.904   6.160   2.968 -0.1481 -0.2761  0.1178
    1TYR    SC2  747   0.874   6.354   3.154 -0.1202  0.0512 -0.2043
    1TYR    SC3  748   0.657   6.251   3.029 -0.1161  0.0897 -0.2434
    2TYR     BB  749   1.412   5.982   3.156 -0.0044 -0.2400  0.0792
    2TYR    SC1  750   1.398   6.324   3.202  0.2280 -0.0868  0.2894
    2TYR    SC2  751   1.505   6.567   3.153 -0.0455 -0.0110  0.0363
    2TYR    SC3  752   1.329   6.536   3.355  0.0208 -0.0086  0.0947
    3TYR     BB  753   1.722   5.989   3.209 -0.3120 -0.0201  0.3608
    3TYR    SC1  754   1.740   6.162   3.427 -0.0758 -0.0976 -0.1021
    3TYR    SC2  755   1.747   6.400   3.556 -0.2679  0.1025 -0.4417
    3TYR    SC3  756   1.933   6.212   3.609  0.0138  0.4070 -0.3130
    1TYR     BB  757   4.002   3.846   5.799  0.1321 -0.1306  0.3701
    1TYR    SC1  758   3.791   4.088   5.909 -0.2303 -0.2082 -0.0857
    1TYR    SC2  759   3.551   4.178   5.824 -0.2552 -0.2107 -0.0191
    1TYR    SC3  760   3.619   4.200   6.085  0.0318  0.2841 -0.1207
    2TYR     BB  761   4.146   4.047   5.500  0.0832  0.2050  0.0753
    2TYR    SC1  762   4.018   4.307   5.493 -0.0547 -0.0318 -0.0543
    2TYR    SC2  763   3.842   4.487   5.591 -0.2086 -0.1460 -0.1167
    2TYR    SC3  764   3.990   4.548   5.375  0.1449  0.1138  0.1840
    3TYR     BB  765   4.267   3.882   5.341  0.2738  0.1308  0.2837
    3TYR    SC1  766   4.392   3.605   5.313  0.1591  0.4066 -0.0663
    3TYR    SC2  767   4.608   3.451   5.361  0.1110  0.4117  0.1834
    3TYR    SC3  768   4.521   3.485   5.108  0.1065  0.0067  0.1215
    1TYR     BB  769   1.200   7.183   2.474  0.0574 -0.3408  0.1588
    1TYR    SC1  770   1.009   7.410   2.337  0.1125  0.1288  0.2556
    1TYR    SC2  771   0.815   7.494   2.169  0.2131 -0.0481  0.0449
    1TYR    SC3  772   0.762   7.466   2.432  0.0818  0.3323  0.0677
    2TYR     BB  773   1.486   7.193   2.571 -0.2344  0.2513 -0.1555
    2TYR    SC1  774   1.640   6.884   2.611  0.0359  0.0525 -0.1311
    2TYR    SC2  775   1.784   6.681   2.507 -0.2501 -0.2611  0.0586
    2TYR    SC3  776   1.782   6.722   2.773 -0.0377  0.1266  0.0091
    3TYR     BB  777   1.795   7.347   2.489  0.2173  0.2994  0.2339
    3TYR    SC1  778   1.808   7.664   2.446  0.1514 -0.1890 -0.1816
    3TYR    SC2  779   1.888   7.871   2.600 -0.1364 -0.0939 -0.1524
    3TYR    SC3  780   1.810   7.915   2.346  0.1212 -0.2189 -0.2580
    1TYR     BB  781   2.988   5.645   2.290 -0.0651 -0.0344 -0.0347
    1TYR    SC1  782   3.267   5.650   2.134  0.0927  0.1079 -0.0732
    1TYR    SC2  783   3.535   5.678   2.114  0.0863  0.1612 -0.0854
    1TYR    SC3  784   3.415   5.453   2.024  0.1181  0.1708 -0.1523
    2TYR     BB  785   3.009   5.811   2.530 -0.2344  0.2913 -0.0344
    2TYR    SC1  786   2.781   5.728   2.692 -0.0956  0.4947  0.0014
    2TYR    SC2  787   2.529   5.650   2.748  0.1522 -0.3364  0.1363
    2TYR    SC3  788   2.723   5.619   2.932  0.3425  0.5374  0.1374
    3TYR     BB  789   3.006   6.152   2.479 -0.3220 -0.1104  0.1912
    3TYR    SC1  790   3.111   6.290   2.689  0.2355 -0.0732  0.1930
    3TYR    SC2  791   3.034   6.482   2.862 -0.1087 -0.1738  0.1615
    3TYR    SC3  792   3.284   6.381   2.874  0.0415  0.1899  0.2521
    1TYR     BB  793   6.489   2.784   5.592  0.5162  0.2959  0.1016
    1TYR    SC1  794   6.346   2.841   5.881  0.4299 -0.1520  0.1841
    1TYR    SC2  795   6.229   3.002   6.064 -0.1714 -0.1014 -0.2081
    1TYR    SC3  796   6.311   2.754   6.134  0.1491  0.1157  0.2443
    2TYR     BB  797   6.588   2.651   5.381  0.2147  0.1008  0.1669
    2TYR    SC1  798   6.858   2.512   5.344 -0.0116  0.0230  0.2663
    2TYR    SC2  799   7.110   2.545   5.253 -0.0369  0.0454  0.2038
    2TYR    SC3  800   7.011   2.296   5.287 -0.1813  0.0260 -0.2686
    3TYR     BB  801   6.507   2.548   5.031 -0.0359 -0.0191  0.0668
    3TYR    SC1  802   6.522   2.274   5.056  0.4692  0.1600  0.4170
    3TYR    SC2  803   6.365   2.103   5.194  0.0192 -0.1142 -0.3527
    3TYR    SC3  804   6.629   2.054   5.169  0.0459 -0.2440  0.0848
    1TYR     BB  805   2.252   5.742   1.871  0.0727  0.1366  0.0818
    1TYR    SC1  806   2.244   5.957   1.622  0.2695  0.3387 -0.1491
    1TYR    SC2  807   2.389   6.044   1.412  0.0970  0.4405 -0.2290
    1TYR    SC3  808   2.152   6.160   1.470 -0.2558 -0.1072 -0.4740
    2TYR     BB  809   2.035   5.831   2.152  0.0453 -0.1077  0.2787
    2TYR    SC1  810   1.802   6.094   2.176  0.0937  0.0179  0.1500
    2TYR    SC2  811   1.683   6.324   2.251  0.1907  0.0249  0.2883
    2TYR    SC3  812   1.548   6.091   2.268 -0.0147  0.1006 -0.1341
    3TYR     BB  813   2.023   5.706   2.417  0.0054 -0.0435 -0.1031
    3TYR    SC1  814   2.115   5.831   2.660  0.5609 -0.3051 -0.1464
    3TYR    SC2  815   2.054   5.717   2.897 -0.0558  0.1262 -0.0693
    3TYR    SC3  816   2.187   5.952   2.891  0.5498 -0.1946 -0.2001
    1TYR     BB  817   2.588   4.155   3.161  0.0102  0.1173 -0.1627
    1TYR    SC1  818   2.481   4.117   3.436  0.1288  0.0671  0.0377
    1TYR    SC2  819   2.375   3.899   3.553  0.4179 -0.0762  0.0448
    1TYR    SC3  820   2.484   4.093   3.704 -0.2207  0.2983  0.0700
    2TYR     BB  821   2.845   4.367   3.035  0.0629 -0.1366  0.3461
    2TYR    SC1  822   2.835   4.646   3.119 -0.1148 -0.1850  0.3511
    2TYR    SC2  823   2.599   4.777   3.132  0.0039  0.1132 -0.1594
    2TYR    SC3  824   2.823   4.893   3.228 -0.0424 -0.1747  0.3362
    3TYR     BB  825   3.241   4.289   3.057 -0.2880  0.0281  0.5660
    3TYR    SC1  826   3.319   4.534   3.224  0.0772 -0.0835 -0.1585
    3TYR    SC2  827   3.315   4.799   3.277 -0.1873 -0.1569  0.2410
    3TYR    SC3  828   3.547   4.678   3.207 -0.0030  0.1252  0.3425
    1TYR     BB  829   2.178   3.616   3.873  0.1179 -0.1220 -0.0605
    1TYR    SC1  830   1.873   3.603   3.810 -0.0265  0.3947 -0.0893
    1TYR    SC2  831   1.615   3.680   3.803 -0.0737  0.2508  0.0009
    1TYR    SC3  832   1.724   3.552   3.592 -0.0665  0.3391 -0.0495
    2TYR     BB  833   2.262   3.479   4.109  0.2292 -0.0028 -0.1447
    2TYR    SC1  834   2.564   3.348   4.095 -0.0945  0.0119 -0.1228
    2TYR    SC2  835   2.817   3.294   4.016 -0.0403  0.3189 -0.1785
    2TYR    SC3  836   2.741   3.244   4.271  0.0861  0.2571 -0.1518
    3TYR     BB  837   2.036   3.384   4.338 -0.0593 -0.1723  0.1579
    3TYR    SC1  838   1.748   3.279   4.208 -0.0547  0.2380  0.1752
    3TYR    SC2  839   1.489   3.202   4.201  0.0313 -0.0567 -0.0818
    3TYR    SC3  840   1.599   3.326   3.988  0.0788  0.1651  0.0669
    1TYR     BB  841   7.091   2.181   3.929  0.0866  0.0289 -0.1896
    1TYR    SC1  842   7.105   2.483   3.799 -0.1008 -0.0453 -0.1669
    1TYR    SC2  843   7.242   2.690   3.695  0.0562 -0.0251  0.0707
    1TYR    SC3  844   7.012   2.609   3.579  0.1987  0.0230 -0.2595
    2TYR     BB  845   6.977   2.151   4.196  0.0432 -0.4478  0.4231
    2TYR    SC1  846   6.634   2.151   4.116  0.1427  0.2197  0.0433
    2TYR    SC2  847   6.416   2.272   4.010  0.1553  0.2700  0.0742
    2TYR    SC3  848   6.387   2.077   4.195  0.1240  0.0074 -0.1978
    3TYR     BB  849   7.331   2.322   4.380 -0.0770 -0.0599 -0.0500
    3TYR    SC1  850   7.529   2.308   4.102  0.3654 -0.0689  0.1928
    3TYR    SC2  851   7.573   2.398   3.851 -0.2983 -0.2944 -0.0323
    3TYR    SC3  852   7.709   2.184   3.943  0.2278  0.0161 -0.0364
    1TYR     BB  853   6.776   2.016   5.636 -0.0289 -0.0790  0.1294
    1TYR    SC1  854   7.070   2.129   5.696 -0.2940 -0.1363 -0.0651
    1TYR    SC2  855   7.227   2.263   5.869 -0.2026  0.0465 -0.2835
    1TYR    SC3  856   7.278   2.004   5.815 -0.1703  0.0164 -0.1161
    2TYR     BB  857   6.603   2.252   5.652 -0.0231  0.1393 -0.1305
    2TYR    SC1  858   6.802   2.513   5.793 -0.1570  0.1651 -0.2134
    2TYR    SC2  859   6.797   2.567   6.058  0.0003 -0.0029 -0.1740
    2TYR    SC3  860   6.984   2.682   5.900 -0.0351  0.0248 -0.1958
    3TYR     BB  861   6.392   2.297   5.842 -0.5162  0.2711  0.3230
    3TYR    SC1  862   6.391   2.194   6.104  0.1608  0.0032 -0.0947
    3TYR    SC2  863   6.318   2.315   6.334  0.0740  0.2553 -0.2488
    3TYR    SC3  864   6.452   2.080   6.341 -0.2549  0.0636  0.0517
    1TYR     BB  865  -0.099   2.604   5.078  0.3575 -0.1014 -0.0037
    1TYR    SC1  866  -0.122   2.336   5.179 -0.2021  0.1947  0.0924
    1TYR    SC2  867  -0.242   2.160   5.344  0.0524  0.0036  0.0821
    1TYR    SC3  868  -0.209   2.099   5.083  0.3653 -0.0506  0.1292
    2TYR     BB  869  -0.280   2.613   4.815  0.2569 -0.0218 -0.1055
    2TYR    SC1  870  -0.486   2.390   4.841  0.3930 -0.1670  0.0106
    2TYR    SC2  871  -0.751   2.337   4.838  0.2371  0.5025 -0.0781
    2TYR    SC3  872  -0.573   2.135   4.821 -0.2555  0.0299  0.0186
    3TYR     BB  873  -0.137   2.755   4.605  0.0097 -0.1159  0.1839
    3TYR    SC1  874   0.186   2.726   4.612 -0.0355 -0.0369 -0.0422
    3TYR    SC2  875   0.427   2.816   4.532  0.0322 -0.1346  0.0496
    3TYR    SC3  876   0.408   2.655   4.748 -0.1382  0.0491  0.1750
    1TYR     BB  877   1.902   4.100   3.664  0.2704  0.0826  0.2161
    1TYR    SC1  878   1.990   3.963   3.379  0.0789  0.1592 -0.3201
    1TYR    SC2  879   1.894   3.780   3.205 -0.1751  0.2067 -0.2362
    1TYR    SC3  880   2.106   3.933   3.138  0.1884 -0.2636 -0.2255
    2TYR     BB  881   1.587   4.178   3.692 -0.2957 -0.0474  0.0017
    2TYR    SC1  882   1.461   4.011   3.423 -0.1531  0.2494 -0.0800
    2TYR    SC2  883   1.454   3.776   3.292  0.0612  0.1773  0.0318
    2TYR    SC3  884   1.258   3.957   3.254 -0.1624 -0.0588  0.0213
    3TYR     BB  885   1.435   4.437   3.678  0.0651  0.1968 -0.0838
    3TYR    SC1  886   1.186   4.468   3.857 -0.0414 -0.0236 -0.0827
    3TYR    SC2  887   0.959   4.608   3.814 -0.0994 -0.1175 -0.0875
    3TYR    SC3  888   1.025   4.531   4.064 -0.0327 -0.0248 -0.0755
    1TYR     BB  889   3.067   5.925   2.995  0.0400  0.0623 -0.1890
    1TYR    SC1  890   2.980   6.142   3.187  0.2134  0.2339 -0.1767
    1TYR    SC2  891   3.069   6.307   3.381  0.2901  0.5243 -0.4482
    1TYR    SC3  892   2.804   6.279   3.339  0.2595  0.2269 -0.1163
    2TYR     BB  893   3.388   5.862   2.895 -0.0667  0.1805  0.2919
    2TYR    SC1  894   3.486   6.023   2.634 -0.3166  0.0373 -0.0291
    2TYR    SC2  895   3.479   6.019   2.364 -0.0796 -0.0967 -0.0368
    2TYR    SC3  896   3.558   6.242   2.494  0.1042 -0.1282 -0.0907
    3TYR     BB  897   3.552   5.668   3.039  0.1753 -0.0653 -0.0583
    3TYR    SC1  898   3.834   5.574   3.063  0.0277 -0.2664 -0.0285
    3TYR    SC2  899   4.084   5.645   3.136 -0.0875 -0.0407  0.1625
    3TYR    SC3  900   4.048   5.465   2.939  0.2226  0.1609 -0.0926
    1TYR     BB  901   5.929   1.482   4.794  0.0727  0.1759 -0.2068
    1TYR    SC1  902   5.831   1.736   4.615  0.0792  0.2513  0.1187
    1TYR    SC2  903   5.969   1.884   4.436  0.1612  0.1837  0.1251
    1TYR    SC3  904   5.699   1.880   4.428  0.1625 -0.2211 -0.3349
    2TYR     BB  905   6.257   1.512   4.641 -0.1535  0.0641 -0.0551
    2TYR    SC1  906   6.337   1.625   4.382  0.2402  0.0019 -0.0394
    2TYR    SC2  907   6.536   1.637   4.199  0.0969  0.0215 -0.1966
    2TYR    SC3  908   6.278   1.632   4.119  0.0361 -0.2212 -0.0039
    3TYR     BB  909   6.453   1.590   4.920  0.0869 -0.2728  0.2490
    3TYR    SC1  910   6.531   1.604   5.220 -0.3367  0.0199  0.0454
    3TYR    SC2  911   6.471   1.732   5.451  0.1071 -0.0112  0.1894
    3TYR    SC3  912   6.538   1.471   5.455 -0.1132 -0.0751 -0.0120
    1TYR     BB  913   2.892   3.629   4.903  0.0015  0.0253 -0.1946
    1TYR    SC1  914   2.711   3.531   4.662  0.4723 -0.0491 -0.1800
    1TYR    SC2  915   2.571   3.635   4.456 -0.0973  0.1185  0.2600
    1TYR    SC3  916   2.486   3.408   4.575  0.3418 -0.0914  0.1966
    2TYR     BB  917   3.176   3.566   4.867 -0.4118  0.4173 -0.1023
    2TYR    SC1  918   3.269   3.436   4.575  0.2700 -0.2996 -0.0565
    2TYR    SC2  919   3.426   3.431   4.356  0.2623 -0.1152 -0.0686
    2TYR    SC3  920   3.158   3.412   4.330  0.2698 -0.2377 -0.0628
    3TYR     BB  921   3.345   3.535   5.070  0.1083  0.2942 -0.2320
    3TYR    SC1  922   3.447   3.313   5.219 -0.0350 -0.2357  0.3300
    3TYR    SC2  923   3.641   3.133   5.166  0.0783 -0.0027 -0.0928
    3TYR    SC3  924   3.585   3.199   5.421  0.7214  0.0941  0.0446
    1TYR     BB  925   5.741   1.020   4.665 -0.0307  0.0921  0.1333
    1TYR    SC1  926   5.831   1.171   4.380 -0.1190  0.2100  0.0231
    1TYR    SC2  927   5.906   1.422   4.311 -0.1703  0.1224 -0.3844
    1TYR    SC3  928   6.073   1.214   4.266 -0.1781  0.0649 -0.1631
    2TYR     BB  929   5.689   0.690   4.737 -0.0522 -0.0442  0.2299
    2TYR    SC1  930   5.970   0.550   4.765 -0.2717  0.1460  0.0444
    2TYR    SC2  931   6.170   0.394   4.672 -0.0488  0.4258  0.0341
    2TYR    SC3  932   6.168   0.470   4.931 -0.4425 -0.0106  0.1769
    3TYR     BB  933   5.467   0.461   4.810  0.0020  0.1202 -0.2822
    3TYR    SC1  934   5.218   0.585   4.962 -0.0329 -0.0041 -0.0463
    3TYR    SC2  935   4.982   0.645   4.843 -0.0528  0.1257  0.0558
    3TYR    SC3  936   4.990   0.585   5.106  0.0551  0.3525  0.1084
    1TYR     BB  937   0.359   3.390   5.583  0.0665 -0.3123  0.1948
    1TYR    SC1  938   0.281   3.125   5.482  0.6152 -0.2151  0.2583
    1TYR    SC2  939   0.168   2.937   5.324  0.2246  0.1293  0.1044
    1TYR    SC3  940   0.220   2.883   5.584 -0.2852 -0.0618  0.1803
    2TYR     BB  941   0.434   3.690   5.352 -0.0022  0.3383  0.0174
    2TYR    SC1  942   0.578   3.818   5.580  0.1236 -0.1923 -0.0068
    2TYR    SC2  943   0.515   3.887   5.834  0.0457  0.0508 -0.0888
    2TYR    SC3  944   0.752   3.960   5.729  0.1490 -0.1941 -0.0347
    3TYR     BB  945   0.316   3.783   5.080 -0.0320 -0.1262 -0.0807
    3TYR    SC1  946   0.065   3.813   4.983  0.1971  0.3209 -0.1170
    3TYR    SC2  947  -0.145   3.645   4.998  0.2967  0.2190  0.2878
    3TYR    SC3  948  -0.102   3.787   4.772  0.0349 -0.0631  0.0483
    1TYR     BB  949   0.540   3.389   4.546  0.2230 -0.1725  0.2681
    1TYR    SC1  950   0.568   3.316   4.242  0.2682 -0.1198 -0.1350
    1TYR    SC2  951   0.498   3.247   3.991 -0.3678  0.2016 -0.0709
    1TYR    SC3  952   0.742   3.353   4.039 -0.0006 -0.4082 -0.4317
    2TYR     BB  953   0.346   3.561   4.591  0.2866 -0.2050 -0.1050
    2TYR    SC1  954   0.023   3.422   4.551 -0.0875  0.1162 -0.2068
    2TYR    SC2  955  -0.177   3.366   4.379 -0.0255  0.1476 -0.2904
    2TYR    SC3  956   0.035   3.201   4.398 -0.0981  0.0680 -0.1386
    3TYR     BB  957   0.384   3.878   4.527  0.3283  0.0050 -0.0334
    3TYR    SC1  958   0.326   4.084   4.704 -0.0388  0.0579 -0.0542
    3TYR    SC2  959   0.369   4.275   4.889  0.2128  0.2833 -0.3326
    3TYR    SC3  960   0.117   4.195   4.834  0.1363  0.1470  0.1571
    1TYR     BB  961   1.235   4.089   4.682 -0.4700 -0.2249  0.2334
    1TYR    SC1  962   1.150   4.347   4.823 -0.5037 -0.0105 -0.1931
    1TYR    SC2  963   1.087   4.435   5.070 -0.4056 -0.1186 -0.1282
    1TYR    SC3  964   1.110   4.610   4.866  0.0624  0.0516  0.0562
    2TYR     BB  965   1.620   4.279   4.737  0.0155 -0.1632 -0.2096
    2TYR    SC1  966   1.571   4.493   4.934 -0.2610  0.0446 -0.0045
    2TYR    SC2  967   1.600   4.758   4.981 -0.0685 -0.0013  0.1556
    2TYR    SC3  968   1.481   4.600   5.165  0.0253 -0.0631  0.1640
    3TYR     BB  969   1.788   4.179   4.605  0.3432 -0.0147  0.0334
    3TYR    SC1  970   1.820   4.024   4.339 -0.0700 -0.2714 -0.0492
    3TYR    SC2  971   1.755   3.772   4.267 -0.4404 -0.0963 -0.3754
    3TYR    SC3  972   1.886   3.932   4.094  0.1762 -0.1784 -0.0215
    1TYR     BB  973   5.836   3.576   4.473 -0.1512  0.0257  0.0947
    1TYR    SC1  974   5.656   3.372   4.524  0.3000  0.0962 -0.0831
    1TYR    SC2  975   5.672   3.202   4.732 -0.1156  0.4154  0.2330
    1TYR    SC3  976   5.456   3.197   4.570  0.2512  0.0947 -0.2853
    2TYR     BB  977   5.846   3.769   4.184 -0.1906  0.2491  0.0212
    2TYR    SC1  978   6.111   3.858   4.080 -0.0012 -0.0770 -0.1401
    2TYR    SC2  979   6.308   3.827   3.897  0.0955  0.2685 -0.1035
    2TYR    SC3  980   6.210   4.073   3.950 -0.0367  0.1563  0.2031
    3TYR     BB  981   5.635   3.686   4.047  0.1982  0.0368  0.0934
    3TYR    SC1  982   5.608   3.839   3.777 -0.0349 -0.0713 -0.0944
    3TYR    SC2  983   5.821   3.879   3.617  0.0436 -0.1103 -0.0013
    3TYR    SC3  984   5.574   3.950   3.533  0.0999 -0.0089 -0.0858
    1TYR     BB  985   7.425   4.218   5.211 -0.1818  0.1012 -0.0025
    1TYR    SC1  986   7.520   4.490   5.106 -0.0646 -0.0726 -0.0834
    1TYR    SC2  987   7.563   4.738   5.206 -0.1509 -0.0514 -0.0981
    1TYR    SC3  988   7.755   4.616   5.060 -0.1715  0.0768 -0.2344
    2TYR     BB  989   7.274   4.194   5.431 -0.0333  0.0147 -0.0541
    2TYR    SC1  990   7.043   4.458   5.421  0.0747  0.0742  0.5748
    2TYR    SC2  991   7.073   4.719   5.482 -0.1752  0.2792 -0.0775
    2TYR    SC3  992   6.826   4.617   5.439 -0.0785 -0.0673  0.1349
    3TYR     BB  993   7.198   4.051   5.688 -0.0290  0.1749 -0.0723
    3TYR    SC1  994   7.467   4.108   5.840  0.4253 -0.4611 -0.3006
    3TYR    SC2  995   7.724   4.161   5.906  0.2147  0.3091  0.0550
    3TYR    SC3  996   7.550   4.077   6.095  0.1550 -0.0536 -0.1489
    1TYR     BB  997   6.102   1.333   5.243 -0.0709 -0.2133  0.0361
    1TYR    SC1  998   6.042   1.663   5.261  0.0960  0.0150  0.1203
    1TYR    SC2  999   6.066   1.883   5.416 -0.2133  0.0535  0.1199
    1TYR    SC3 1000   5.825   1.815   5.313 -0.0364 -0.0318 -0.2574
    2TYR     BB 1001   5.835   1.203   5.316 -0.0828 -0.3349 -0.0161
    2TYR    SC1 1002   5.855   1.126   5.616  0.4889  0.1775 -0.1678
    2TYR    SC2 1003   5.989   1.064   5.842 -0.1930  0.3275  0.3172
    2TYR    SC3 1004   5.879   0.868   5.692  0.6762  0.1786 -0.2163
    3TYR     BB 1005   5.669   0.952   5.143  0.2647  0.1037 -0.1998
    3TYR    SC1 1006   5.500   0.774   5.370  0.0418 -0.5571 -0.6048
    3TYR    SC2 1007   5.275   0.639   5.433 -0.1469  0.0049  0.1049
    3TYR    SC3 1008   5.495   0.615   5.588  0.0154  0.0721 -0.1086
    1TYR     BB 1009   1.616   7.596   2.930 -0.0171  0.1849 -0.0635
    1TYR    SC1 1010   1.419   7.635   2.698 -0.2465  0.0593  0.2327
    1TYR    SC2 1011   1.357   7.701   2.444  0.0308 -0.4035  0.0289
    1TYR    SC3 1012   1.166   7.705   2.635 -0.2141 -0.1796 -0.2095
    2TYR     BB 1013   1.732   7.220   2.980  0.1935  0.0859 -0.2154
    2TYR    SC1 1014   1.668   7.143   3.240 -0.1725 -0.1254  0.0186
    2TYR    SC2 1015   1.710   6.888   3.319  0.0347 -0.0992 -0.0014
    2TYR    SC3 1016   1.771   7.092   3.485 -0.2795 -0.0633  0.0777
    3TYR     BB 1017   2.034   7.258   2.932 -0.2948  0.0129 -0.1147
    3TYR    SC1 1018   2.150   7.535   2.925 -0.0613 -0.0107  0.0112
    3TYR    SC2 1019   2.123   7.721   3.119 -0.1431  0.0878 -0.0930
    3TYR    SC3 1020   2.229   7.789   2.880 -0.2812  0.0293 -0.1725
    1TYR     BB 1021  -0.753   2.830   4.883 -0.2493  0.1507  0.1889
    1TYR    SC1 1022  -0.707   3.017   4.609 -0.2381  0.2504  0.1067
    1TYR    SC2 1023  -0.613   3.232   4.475  0.1912 -0.0938 -0.1814
    1TYR    SC3 1024  -0.826   3.097   4.380  0.0529  0.0736 -0.1161
    2TYR     BB 1025  -0.497   2.985   5.038  0.0814  0.2550 -0.2168
    2TYR    SC1 1026  -0.680   2.995   5.306  0.0151  0.3547 -0.1573
    2TYR    SC2 1027  -0.850   3.129   5.468 -0.0441  0.0472  0.0462
    2TYR    SC3 1028  -0.657   2.973   5.575 -0.1629 -0.2631 -0.1732
    3TYR     BB 1029  -0.330   3.149   4.865 -0.3369  0.0568  0.5244
    3TYR    SC1 1030  -0.017   3.139   4.893  0.1151 -0.0324 -0.1956
    3TYR    SC2 1031   0.241   3.060   4.894  0.0573 -0.2314 -0.0130
    3TYR    SC3 1032   0.171   3.292   5.012  0.1191 -0.3010  0.1639
    1TYR     BB 1033   6.232   1.574   3.224  0.1986 -0.2607 -0.0725
    1TYR    SC1 1034   6.197   1.295   3.288  0.0444  0.1841 -0.1165
    1TYR    SC2 1035   6.351   1.080   3.341 -0.0459  0.1141 -0.1367
    1TYR    SC3 1036   6.095   1.047   3.261  0.0202  0.2212 -0.4070
    2TYR     BB 1037   6.120   1.742   3.551 -0.0588 -0.3968 -0.0040
    2TYR    SC1 1038   5.857   1.871   3.394  0.2059 -0.2585 -0.1440
    2TYR    SC2 1039   5.619   1.795   3.497  0.1190 -0.1291 -0.2452
    2TYR    SC3 1040   5.627   1.949   3.275  0.2923  0.0431 -0.1233
    3TYR     BB 1041   6.291   1.896   3.698 -0.2316  0.3498 -0.0839
    3TYR    SC1 1042   6.584   1.803   3.692 -0.1523  0.3150 -0.0043
    3TYR    SC2 1043   6.846   1.843   3.645 -0.0224 -0.3865 -0.0157
    3TYR    SC3 1044   6.761   1.788   3.895 -0.1146 -0.4367 -0.0574
    1TYR     BB 1045   3.507   5.016   3.901 -0.3842  0.2238 -0.1519
    1TYR    SC1 1046   3.382   4.860   4.104  0.0589  0.0843  0.0506
    1TYR    SC2 1047   3.338   4.789   4.361 -0.0637  0.1617  0.0522
    1TYR    SC3 1048   3.239   4.638   4.160 -0.2766  0.2923  0.0551
    2TYR     BB 1049   3.701   5.210   3.978  0.0678  0.0787  0.1144
    2TYR    SC1 1050   3.989   5.093   3.941 -0.1577 -0.0772  0.3728
    2TYR    SC2 1051   4.244   5.137   3.863 -0.2902  0.2366  0.0874
    2TYR    SC3 1052   4.193   4.979   4.076  0.1218 -0.1093 -0.0549
    3TYR     BB 1053   3.585   5.462   4.076  0.0683 -0.0032 -0.0975
    3TYR    SC1 1054   3.434   5.406   4.316 -0.4972  0.1249 -0.5490
    3TYR    SC2 1055   3.363   5.228   4.507  0.3972 -0.1006 -0.3676
    3TYR    SC3 1056   3.212   5.447   4.464 -0.1834 -0.3657  0.1319
    1TYR     BB 1057   7.481   0.858   3.498 -0.2265  0.1504  0.0323
    1TYR    SC1 1058   7.691   0.925   3.745 -0.0882  0.2664  0.1002
    1TYR    SC2 1059   7.913   0.830   3.866 -0.2964 -0.2567  0.1072
    1TYR    SC3 1060   7.705   0.917   4.015 -0.1845  0.0327  0.1021
    2TYR     BB 1061   7.273   1.119   3.633  0.0122  0.2762 -0.0008
    2TYR    SC1 1062   7.437   1.260   3.877  0.1283  0.1399  0.0813
    2TYR    SC2 1063   7.452   1.347   4.132 -0.0831  0.2875  0.0470
    2TYR    SC3 1064   7.668   1.365   3.971  0.0604  0.1675  0.2204
    3TYR     BB 1065   7.212   1.313   3.369 -0.1786 -0.1722  0.1339
    3TYR    SC1 1066   6.928   1.460   3.389  0.1611 -0.2020  0.0569
    3TYR    SC2 1067   6.667   1.401   3.431  0.1033  0.0161  0.0209
    3TYR    SC3 1068   6.735   1.611   3.275  0.3042 -0.1426 -0.1113
    1TYR     BB 1069   1.905   4.700   5.424  0.2946 -0.2096 -0.0516
    1TYR    SC1 1070   2.039   4.487   5.633  0.0584  0.0520  0.0831
    1TYR    SC2 1071   1.918   4.412   5.863 -0.0677 -0.3886 -0.1144
    1TYR    SC3 1072   2.049   4.229   5.714  0.0827 -0.0941 -0.3563
    2TYR     BB 1073   2.077   4.630   5.116  0.1253  0.0306  0.1689
    2TYR    SC1 1074   2.119   4.888   4.983  0.2453  0.0630  0.0111
    2TYR    SC2 1075   2.145   5.091   4.807 -0.3584 -0.1310 -0.3373
    2TYR    SC3 1076   1.976   5.115   5.016  0.1565 -0.0037  0.0906
    3TYR     BB 1077   2.084   4.307   5.003 -0.1671  0.3597  0.1258
    3TYR    SC1 1078   2.411   4.283   4.963 -0.0997 -0.2555  0.1393
    3TYR    SC2 1079   2.618   4.111   4.944  0.2298  0.1384 -0.0254
    3TYR    SC3 1080   2.664   4.372   4.996 -0.2709  0.1499  0.4779
    1TYR     BB 1081   7.142   4.007   4.907  0.3359 -0.1283  0.1957
    1TYR    SC1 1082   6.988   4.260   5.002 -0.1520 -0.1674 -0.1897
    1TYR    SC2 1083   6.809   4.461   4.979 -0.2236 -0.1988  0.0527
    1TYR    SC3 1084   7.073   4.516   4.987 -0.2522 -0.0845  0.3725
    2TYR     BB 1085   6.989   3.751   5.137  0.1833  0.1444 -0.0695
    2TYR    SC1 1086   6.851   3.987   5.299  0.1142  0.0413  0.1277
    2TYR    SC2 1087   6.668   4.177   5.358 -0.3767 -0.3617 -0.0106
    2TYR    SC3 1088   6.700   3.964   5.521  0.2678 -0.1211  0.2182
    3TYR     BB 1089   7.001   3.447   5.110  0.1419 -0.1680 -0.0412
    3TYR    SC1 1090   6.872   3.357   4.852  0.2937 -0.0170  0.0650
    3TYR    SC2 1091   6.622   3.327   4.754  0.1482  0.2570  0.3303
    3TYR    SC3 1092   6.780   3.527   4.663  0.1885  0.2204  0.3195
    1TYR     BB 1093   2.266   3.324   5.453  0.0826 -0.0401  0.0297
    1TYR    SC1 1094   2.154   3.329   5.723  0.1575 -0.0015 -0.0658
    1TYR    SC2 1095   1.925   3.421   5.833  0.1370  0.1528 -0.2304
    1TYR    SC3 1096   2.110   3.299   5.987  0.0482  0.2376 -0.0535
    2TYR     BB 1097   2.514   3.125   5.515 -0.3030  0.1034  0.2692
    2TYR    SC1 1098   2.676   3.199   5.765  0.0713 -0.2010 -0.0697
    2TYR    SC2 1099   2.687   3.421   5.920  0.0828 -0.0174 -0.3255
    2TYR    SC3 1100   2.621   3.183   6.029 -0.2227  0.1625 -0.0981
    3TYR     BB 1101   2.579   2.822   5.429 -0.0677  0.0253 -0.3727
    3TYR    SC1 1102   2.868   2.825   5.544 -0.1042  0.0006  0.0206
    3TYR    SC2 1103   3.002   2.905   5.764  0.1001  0.2268 -0.1793
    3TYR    SC3 1104   3.137   2.847   5.537 -0.0930 -0.1599 -0.2051
    1TYR     BB 1105   2.190   4.936   3.411  0.3380  0.0232  0.1938
    1TYR    SC1 1106   2.374   5.145   3.309 -0.0934 -0.0400  0.0246
    1TYR    SC2 1107   2.384   5.383   3.181  0.2463 -0.0625 -0.0020
    1TYR    SC3 1108   2.606   5.284   3.300 -0.0501 -0.0410  0.6185
    2TYR     BB 1109   1.912   4.842   3.388  0.3276  0.1168 -0.3951
    2TYR    SC1 1110   1.699   4.971   3.226  0.0306 -0.1472 -0.2515
    2TYR    SC2 1111   1.478   5.095   3.134  0.0535 -0.0720 -0.2070
    2TYR    SC3 1112   1.670   5.016   2.962  0.1945  0.2589 -0.2102
    3TYR     BB 1113   1.829   4.747   3.676 -0.1477  0.1654 -0.3077
    3TYR    SC1 1114   2.019   4.813   3.883  0.2181  0.1926 -0.0514
    3TYR    SC2 1115   2.241   4.736   4.016  0.0545  0.0218  0.1319
    3TYR    SC3 1116   2.041   4.858   4.148 -0.1532 -0.2378  0.0692
    1TYR     BB 1117   5.038   3.141   5.365 -0.0033  0.2183  0.2165
    1TYR    SC1 1118   4.956   3.313   5.622 -0.1599 -0.0902 -0.1278
    1TYR    SC2 1119   4.877   3.334   5.879 -0.1259 -0.0853 -0.1177
    1TYR    SC3 1120   5.043   3.519   5.774  0.2331 -0.3316 -0.0077
    2TYR     BB 1121   5.142   2.874   5.462  0.0313  0.1155 -0.0602
    2TYR    SC1 1122   5.417   2.729   5.461 -0.1376 -0.2561  0.1549
    2TYR    SC2 1123   5.573   2.523   5.537  0.0781 -0.1512  0.0113
    2TYR    SC3 1124   5.664   2.701   5.356 -0.1980 -0.0654 -0.0492
    3TYR     BB 1125   4.846   2.646   5.448  0.1027  0.0352 -0.3643
    3TYR    SC1 1126   4.670   2.866   5.618 -0.0331 -0.1878  0.4070
    3TYR    SC2 1127   4.462   2.996   5.505  0.1357 -0.2245  0.0366
    3TYR    SC3 1128   4.520   3.035   5.766 -0.1334  0.0357  0.0641
    1TYR     BB 1129   2.957   4.635   4.679  0.0758 -0.0918 -0.3986
    1TYR    SC1 1130   2.950   4.954   4.647  0.0864  0.1362 -0.0293
    1TYR    SC2 1131   2.808   5.171   4.572  0.0261  0.0136 -0.2840
    1TYR    SC3 1132   3.013   5.197   4.746  0.0961  0.2929 -0.4018
    2TYR     BB 1133   2.979   4.410   4.502 -0.0760 -0.0660 -0.0434
    2TYR    SC1 1134   3.292   4.309   4.449 -0.1112 -0.0877  0.2881
    2TYR    SC2 1135   3.559   4.345   4.473 -0.0935  0.1665 -0.1559
    2TYR    SC3 1136   3.463   4.129   4.342 -0.1070  0.0889 -0.0194
    3TYR     BB 1137   2.721   4.170   4.460 -0.0646  0.1195  0.0349
    3TYR    SC1 1138   2.925   3.924   4.495  0.0917 -0.0496 -0.1569
    3TYR    SC2 1139   3.075   3.847   4.284 -0.0110 -0.4634 -0.0916
    3TYR    SC3 1140   3.189   3.875   4.527  0.1395  0.1625 -0.2122
    1TYR     BB 1141   2.660   6.948   2.277  0.0649 -0.0496  0.3740
    1TYR    SC1 1142   2.427   6.978   2.440 -0.1265  0.0740 -0.0297
    1TYR    SC2 1143   2.235   6.908   2.616  0.0761  0.1246  0.2187
    1TYR    SC3 1144   2.173   7.064   2.405 -0.1867 -0.0033  0.1952
    2TYR     BB 1145   2.823   6.810   2.597  0.0516  0.1875  0.1408
    2TYR    SC1 1146   3.155   6.830   2.530  0.1438 -0.3298 -0.1483
    2TYR    SC2 1147   3.377   6.950   2.432  0.0875 -0.3008 -0.2423
    2TYR    SC3 1148   3.399   6.734   2.592  0.1848 -0.2656 -0.2076
    3TYR     BB 1149   2.651   6.722   2.804  0.2041  0.0596 -0.2847
    3TYR    SC1 1150   2.732   6.700   3.113  0.1479 -0.0655  0.1520
    3TYR    SC2 1151   2.633   6.731   3.362 -0.2831  0.2505 -0.0426
    3TYR    SC3 1152   2.896   6.773   3.315 -0.2286  0.3683  0.3235
    1TYR     BB 1153   2.624   6.449   2.340  0.1700 -0.0615 -0.1052
    1TYR    SC1 1154   2.371   6.590   2.236 -0.0492 -0.0538 -0.2051
    1TYR    SC2 1155   2.105   6.630   2.226 -0.1025 -0.4215 -0.5588
    1TYR    SC3 1156   2.270   6.786   2.081 -0.0641  0.1081  0.0029
    2TYR     BB 1157   2.901   6.500   2.121  0.0239 -0.3476 -0.0972
    2TYR    SC1 1158   2.807   6.266   1.908  0.1492  0.0922  0.0259
    2TYR    SC2 1159   2.667   6.113   1.736  0.0197  0.3275 -0.0836
    2TYR    SC3 1160   2.858   6.280   1.644  0.2075  0.1863  0.0413
    3TYR     BB 1161   3.245   6.459   2.174  0.0629 -0.1260  0.0657
    3TYR    SC1 1162   3.253   6.167   2.039 -0.2548  0.3936 -0.0052
    3TYR    SC2 1163   3.086   5.969   1.962 -0.0056  0.0558  0.2811
    3TYR    SC3 1164   3.337   5.981   1.863 -0.0982  0.3967  0.0643
    1TYR     BB 1165   4.116   3.793   4.896  0.1084 -0.0326  0.2064
    1TYR    SC1 1166   4.273   4.078   4.814  0.1979 -0.0056 -0.0045
    1TYR    SC2 1167   4.478   4.240   4.748  0.1613 -0.0212 -0.1603
    1TYR    SC3 1168   4.364   4.260   4.992  0.1403  0.2051 -0.1858
    2TYR     BB 1169   4.281   3.595   4.654  0.0324  0.2134  0.0493
    2TYR    SC1 1170   4.088   3.445   4.475  0.0296  0.2285  0.0622
    2TYR    SC2 1171   4.148   3.218   4.341  0.0418  0.2988 -0.0532
    2TYR    SC3 1172   3.890   3.295   4.368  0.0287  0.2087  0.0917
    3TYR     BB 1173   4.619   3.674   4.624 -0.1974 -0.0438  0.0967
    3TYR    SC1 1174   4.659   3.823   4.862 -0.1376  0.0479 -0.2566
    3TYR    SC2 1175   4.655   3.937   5.107 -0.2285 -0.3321 -0.0725
    3TYR    SC3 1176   4.885   3.927   4.966 -0.1027 -0.3814  0.1321
    1TYR     BB 1177   5.881   2.278   4.171 -0.1638  0.2390  0.2023
    1TYR    SC1 1178   5.886   2.272   3.877  0.1370 -0.0286  0.0816
    1TYR    SC2 1179   5.737   2.202   3.663 -0.1122  0.1251  0.1993
    1TYR    SC3 1180   5.989   2.292   3.628  0.0232 -0.2968  0.0087
    2TYR     BB 1181   6.079   2.477   4.311 -0.1219  0.1855 -0.2282
    2TYR    SC1 1182   6.143   2.670   4.100 -0.0092 -0.0103  0.1611
    2TYR    SC2 1183   6.131   2.674   3.830 -0.3269 -0.0795  0.1694
    2TYR    SC3 1184   5.942   2.801   3.976 -0.2386 -0.1621  0.3603
    3TYR     BB 1185   6.056   2.425   4.609 -0.1231  0.1201  0.0419
    3TYR    SC1 1186   5.965   2.215   4.763 -0.0626 -0.1190  0.0290
    3TYR    SC2 1187   6.020   2.012   4.933 -0.1304 -0.1331  0.0346
    3TYR    SC3 1188   5.776   2.127   4.936 -0.0968 -0.0611  0.0212
    1TYR     BB 1189   5.602   1.687   5.974  0.1497 -0.0946 -0.0288
    1TYR    SC1 1190   5.468   1.948   6.014  0.0221  0.0841 -0.5365
    1TYR    SC2 1191   5.479   2.153   6.190  0.0157 -0.0496 -0.3774
    1TYR    SC3 1192   5.420   2.201   5.931 -0.0157  0.1452 -0.3364
    2TYR     BB 1193   5.671   1.566   5.727 -0.6349 -0.2599  0.0443
    2TYR    SC1 1194   5.996   1.563   5.717  0.0096  0.1451 -0.5536
    2TYR    SC2 1195   6.193   1.736   5.780 -0.0341  0.0220 -0.0220
    2TYR    SC3 1196   6.241   1.470   5.782 -0.1869 -0.0061  0.0519
    3TYR     BB 1197   5.484   1.496   5.528  0.1918  0.1975 -0.1127
    3TYR    SC1 1198   5.395   1.197   5.539  0.1329 -0.3449 -0.0312
    3TYR    SC2 1199   5.160   1.075   5.483 -0.1311 -0.0106  0.2877
    3TYR    SC3 1200   5.285   1.026   5.718  0.0545 -0.0877  0.1751
   7.66375   7.66375   7.66375
