Generated by trjconv : Martini system from ../2_Creating_coordinates/TYR-CYS-TYR_aa.pdb t=   0.00000
 1000
    1TYR     BB    1   3.669   5.129   4.805  0.1197 -0.0631  0.2204
    1TYR    SC1    2   3.493   5.022   5.013  0.0194  0.2938  0.0863
    1TYR    SC2    3   3.281   5.158   5.111  0.0455  0.1728  0.3195
    1TYR    SC3    4   3.347   4.918   5.215 -0.1565 -0.1549 -0.2519
    2CYS     BB    5   3.648   5.454   4.686  0.0471  0.1612  0.4004
    2CYS    SC1    6   3.580   5.310   4.376  0.0264  0.0713 -0.0940
    3TYR     BB    7   3.333   5.544   4.755 -0.4061  0.1696  0.0529
    3TYR    SC1    8   3.210   5.749   4.539  0.2218  0.2118 -0.0505
    3TYR    SC2    9   3.200   5.982   4.402  0.0670  0.2790  0.0704
    3TYR    SC3   10   3.022   5.786   4.349  0.0667  0.2682  0.1107
    1TYR     BB   11   4.143   6.472   6.439 -0.1344 -0.0028  0.0519
    1TYR    SC1   12   4.039   6.753   6.340  0.0888 -0.1400 -0.2025
    1TYR    SC2   13   4.043   6.959   6.165 -0.3194  0.1303  0.0833
    1TYR    SC3   14   4.141   6.992   6.415 -0.0985 -0.1297  0.0364
    2CYS     BB   15   4.161   6.142   6.300  0.2494 -0.2074 -0.0234
    2CYS    SC1   16   3.959   5.945   6.198 -0.1295 -0.0924  0.0968
    3TYR     BB   17   4.318   5.971   6.504  0.0821 -0.2832  0.0403
    3TYR    SC1   18   4.588   6.032   6.686  0.0839 -0.0211  0.1486
    3TYR    SC2   19   4.830   5.969   6.585 -0.0193 -0.1756 -0.0089
    3TYR    SC3   20   4.811   6.142   6.792  0.2081  0.0226 -0.1470
    1TYR     BB   21   2.062   4.784   3.201  0.1317 -0.0819  0.1850
    1TYR    SC1   22   1.813   4.788   3.003 -0.0945 -0.1796  0.1209
    1TYR    SC2   23   1.560   4.881   3.022 -0.0417  0.0849 -0.3111
    1TYR    SC3   24   1.606   4.615   3.017 -0.2688  0.0257  0.1406
    2CYS     BB   25   2.262   4.958   3.129 -0.4935 -0.3474  0.0192
    2CYS    SC1   26   2.571   4.984   3.192 -0.0264 -0.2285 -0.1165
    3TYR     BB   27   2.229   5.173   2.834 -0.2849  0.0525  0.0686
    3TYR    SC1   28   2.477   5.316   2.779 -0.1298  0.0085 -0.1366
    3TYR    SC2   29   2.704   5.401   2.897 -0.1342 -0.2608  0.0792
    3TYR    SC3   30   2.692   5.378   2.628  0.1018 -0.2665  0.0662
    1TYR     BB   31   0.895   1.061   2.323 -0.1152 -0.2008  0.1841
    1TYR    SC1   32   0.968   0.927   2.552  0.1534 -0.0674 -0.2609
    1TYR    SC2   33   1.076   0.798   2.764  0.0701 -0.0215 -0.1899
    1TYR    SC3   34   0.817   0.758   2.699 -0.0218  0.2753 -0.0309
    2CYS     BB   35   0.976   1.353   2.398  0.0620 -0.0237  0.1015
    2CYS    SC1   36   0.758   1.486   2.523 -0.0093 -0.0056 -0.1214
    3TYR     BB   37   1.265   1.604   2.503  0.2536  0.0248  0.1079
    3TYR    SC1   38   1.149   1.849   2.536  0.0640  0.0210  0.1312
    3TYR    SC2   39   1.090   2.089   2.645 -0.0864  0.0550 -0.0199
    3TYR    SC3   40   0.914   1.969   2.479 -0.0360 -0.1865  0.0957
    1TYR     BB   41   1.559   1.990   1.814  0.3094  0.0790  0.2959
    1TYR    SC1   42   1.268   2.035   1.684  0.0123 -0.1793  0.0213
    1TYR    SC2   43   1.025   1.929   1.631 -0.1187  0.2043 -0.1898
    1TYR    SC3   44   1.056   2.197   1.644  0.2247  0.1583  0.2079
    2CYS     BB   45   1.627   1.862   1.374 -0.1200  0.1340 -0.1043
    2CYS    SC1   46   1.568   2.174   1.310  0.3148  0.0296 -0.0365
    3TYR     BB   47   1.595   1.541   1.178  0.0532 -0.1400  0.0021
    3TYR    SC1   48   1.835   1.596   1.024  0.0265 -0.3201 -0.1430
    3TYR    SC2   49   2.017   1.670   0.839  0.2222 -0.1348  0.1139
    3TYR    SC3   50   2.089   1.505   1.040  0.1451  0.0406  0.2894
    1TYR     BB   51   4.884   5.908   6.128  0.0566  0.0922 -0.4948
    1TYR    SC1   52   4.681   5.759   5.997 -0.3127 -0.0342  0.1886
    1TYR    SC2   53   4.562   5.588   5.825  0.1531 -0.2735  0.0847
    1TYR    SC3   54   4.463   5.619   6.074 -0.3092 -0.2068 -0.0959
    2CYS     BB   55   5.171   5.741   6.085 -0.1090  0.0653 -0.1297
    2CYS    SC1   56   5.157   5.583   5.813  0.1391  0.1051 -0.1327
    3TYR     BB   57   5.316   5.637   6.261  0.1572 -0.1046 -0.1899
    3TYR    SC1   58   5.212   5.729   6.550  0.0707 -0.4982  0.0618
    3TYR    SC2   59   5.359   5.831   6.752 -0.3228 -0.1005  0.1662
    3TYR    SC3   60   5.191   5.625   6.798 -0.2502 -0.1549  0.1897
    1TYR     BB   61   3.067   1.008   2.661  0.0331  0.2453 -0.2978
    1TYR    SC1   62   3.116   1.331   2.724 -0.0313  0.1473  0.2042
    1TYR    SC2   63   3.112   1.601   2.725  0.0427  0.1489  0.1723
    1TYR    SC3   64   3.213   1.466   2.937  0.3229  0.1546  0.0484
    2CYS     BB   65   2.939   1.004   3.026 -0.0801  0.2690  0.0671
    2CYS    SC1   66   2.657   0.922   3.000 -0.0482  0.4028 -0.1379
    3TYR     BB   67   3.116   1.062   3.296  0.0879  0.0699 -0.0608
    3TYR    SC1   68   2.913   1.088   3.522  0.2256  0.1209  0.1179
    3TYR    SC2   69   2.691   1.041   3.669  0.0179  0.2327 -0.1489
    3TYR    SC3   70   2.816   1.279   3.686  0.2504  0.0979  0.1598
    1TYR     BB   71   1.183   5.547   2.499 -0.0205  0.2142  0.0014
    1TYR    SC1   72   1.163   5.388   2.775 -0.0378 -0.0340  0.1060
    1TYR    SC2   73   0.989   5.350   2.979  0.1080 -0.2169  0.1999
    1TYR    SC3   74   1.252   5.380   3.030  0.1301 -0.1343  0.0457
    2CYS     BB   75   1.384   5.589   2.265  0.0809  0.1412 -0.2321
    2CYS    SC1   76   1.326   5.378   2.046 -0.0827  0.3500  0.1021
    3TYR     BB   77   1.541   5.902   2.272 -0.1294 -0.0964 -0.0954
    3TYR    SC1   78   1.446   6.053   2.003 -0.0872 -0.0489 -0.1574
    3TYR    SC2   79   1.506   6.204   1.787  0.0999  0.2128  0.0680
    3TYR    SC3   80   1.257   6.211   1.892  0.2003  0.6944  0.3112
    1TYR     BB   81   2.069   4.439   2.226 -0.1343  0.1383 -0.0021
    1TYR    SC1   82   1.792   4.339   2.142  0.0261  0.2775 -0.0365
    1TYR    SC2   83   1.646   4.316   1.916  0.1164 -0.2197 -0.0590
    1TYR    SC3   84   1.522   4.335   2.156  0.0083 -0.4337 -0.0945
    2CYS     BB   85   2.289   4.400   1.958  0.1637  0.2399 -0.0912
    2CYS    SC1   86   2.080   4.446   1.705  0.0459 -0.2882 -0.1787
    3TYR     BB   87   2.510   4.257   2.077  0.0943 -0.2145 -0.0156
    3TYR    SC1   88   2.837   4.217   2.021  0.0102  0.4152  0.1146
    3TYR    SC2   89   3.106   4.209   2.051  0.0067  0.3101  0.1228
    3TYR    SC3   90   2.998   4.307   1.823  0.0717 -0.2581 -0.1754
    1TYR     BB   91   2.343   7.597   3.649  0.2084  0.0198 -0.0523
    1TYR    SC1   92   2.190   7.324   3.722 -0.2629  0.1709 -0.3262
    1TYR    SC2   93   2.017   7.119   3.691 -0.1302 -0.0044  0.0281
    1TYR    SC3   94   2.241   7.085   3.838 -0.1688  0.4311  0.2046
    2CYS     BB   95   2.461   7.748   3.384  0.4341  0.0549 -0.2919
    2CYS    SC1   96   2.285   8.005   3.296 -0.2014  0.2070 -0.0705
    3TYR     BB   97   2.699   7.765   3.201  0.0722 -0.0593 -0.0347
    3TYR    SC1   98   2.915   7.507   3.201  0.0278 -0.0677  0.0740
    3TYR    SC2   99   2.997   7.252   3.237  0.2331 -0.0367 -0.1426
    3TYR    SC3  100   3.145   7.456   3.334  0.2652  0.0107 -0.2875
    1TYR     BB  101   1.858   5.332   3.084  0.0864 -0.0160 -0.1194
    1TYR    SC1  102   2.128   5.451   3.211  0.1339  0.2896 -0.1359
    1TYR    SC2  103   2.268   5.603   3.384  0.2551 -0.0529  0.0815
    1TYR    SC3  104   2.381   5.524   3.152  0.1279  0.3233 -0.1197
    2CYS     BB  105   1.756   5.389   2.795 -0.3238  0.0015 -0.3648
    2CYS    SC1  106   1.634   5.617   2.690 -0.1801 -0.0399  0.3196
    3TYR     BB  107   1.722   5.136   2.644  0.2492 -0.0124 -0.0583
    3TYR    SC1  108   1.455   5.091   2.502  0.0201 -0.2287  0.0679
    3TYR    SC2  109   1.192   5.031   2.509  0.0234 -0.2501  0.0166
    3TYR    SC3  110   1.337   4.978   2.287  0.0127  0.0089 -0.0564
    1TYR     BB  111   5.506   5.927   3.774 -0.0391  0.0441 -0.1460
    1TYR    SC1  112   5.637   6.196   3.671  0.0815 -0.2827 -0.1826
    1TYR    SC2  113   5.770   6.430   3.667 -0.1499 -0.1295  0.2427
    1TYR    SC3  114   5.579   6.380   3.483 -0.0718 -0.0029  0.1246
    2CYS     BB  115   5.550   5.697   3.507 -0.3834  0.1107 -0.0953
    2CYS    SC1  116   5.580   5.400   3.550 -0.0216 -0.0460  0.1960
    3TYR     BB  117   5.704   5.865   3.294  0.2650  0.2166  0.2671
    3TYR    SC1  118   5.940   6.005   3.425 -0.2231 -0.1460 -0.0812
    3TYR    SC2  119   6.112   6.189   3.520 -0.3265 -0.0119 -0.1496
    3TYR    SC3  120   6.059   5.966   3.664 -0.2156  0.0202 -0.0570
    1TYR     BB  121   1.195   4.427   3.306  0.2836  0.1606 -0.1112
    1TYR    SC1  122   1.475   4.439   3.395  0.0159  0.4310 -0.0876
    1TYR    SC2  123   1.579   4.391   3.639  0.0942 -0.3099 -0.2369
    1TYR    SC3  124   1.704   4.560   3.470  0.4879 -0.3963 -0.0471
    2CYS     BB  125   1.307   4.171   2.988 -0.0782 -0.1321 -0.1736
    2CYS    SC1  126   1.086   4.260   2.826 -0.0743 -0.3216 -0.0933
    3TYR     BB  127   1.548   4.133   3.070  0.2335  0.1507  0.0531
    3TYR    SC1  128   1.808   4.147   3.200 -0.2148 -0.0840  0.2697
    3TYR    SC2  129   2.052   4.057   3.270  0.0464  0.1396 -0.2784
    3TYR    SC3  130   1.985   4.314   3.316 -0.1866  0.0263  0.0726
    1TYR     BB  131   1.733   3.001   2.594 -0.0693 -0.1102  0.0841
    1TYR    SC1  132   1.702   2.692   2.676 -0.3405  0.1064  0.2112
    1TYR    SC2  133   1.825   2.453   2.649  0.1644  0.3720 -0.0053
    1TYR    SC3  134   1.556   2.465   2.670  0.1284 -0.2092  0.0582
    2CYS     BB  135   1.800   3.042   2.307  0.1763  0.2255 -0.1289
    2CYS    SC1  136   1.678   3.128   2.066  0.1156  0.1309 -0.0114
    3TYR     BB  137   2.136   2.886   2.232  0.1226  0.0288 -0.1941
    3TYR    SC1  138   2.188   2.703   2.479  0.0856 -0.0127 -0.1053
    3TYR    SC2  139   2.187   2.748   2.745 -0.3479 -0.1098 -0.0806
    3TYR    SC3  140   2.273   2.511   2.649  0.6075  0.1957 -0.1090
    1TYR     BB  141   3.199   5.663   1.736 -0.0308 -0.0781 -0.0213
    1TYR    SC1  142   3.385   5.665   1.456 -0.0102 -0.2690 -0.0192
    1TYR    SC2  143   3.535   5.770   1.258 -0.1696  0.1661  0.0768
    1TYR    SC3  144   3.519   5.502   1.287  0.1039  0.0976 -0.2990
    2CYS     BB  145   3.269   5.494   1.888 -0.2224  0.1160 -0.0392
    2CYS    SC1  146   3.405   5.580   2.174  0.1671 -0.2319  0.0319
    3TYR     BB  147   3.355   5.178   1.799  0.2168  0.0006  0.3363
    3TYR    SC1  148   3.207   5.200   1.519 -0.1283 -0.1220 -0.1554
    3TYR    SC2  149   3.027   5.286   1.338 -0.3499  0.0004  0.1123
    3TYR    SC3  150   3.200   5.089   1.274 -0.4069  0.0545 -0.2332
    1TYR     BB  151   4.594   6.318   3.958  0.3383 -0.1324 -0.0143
    1TYR    SC1  152   4.419   6.456   3.746  0.1587 -0.0409 -0.0697
    1TYR    SC2  153   4.350   6.554   3.504  0.4139 -0.1907 -0.2091
    1TYR    SC3  154   4.204   6.356   3.617  0.0483  0.1553 -0.0431
    2CYS     BB  155   4.503   6.134   4.191 -0.0965 -0.1087 -0.1240
    2CYS    SC1  156   4.648   6.200   4.440 -0.0858 -0.1368 -0.0837
    3TYR     BB  157   4.500   5.788   4.294 -0.1054  0.1501  0.2573
    3TYR    SC1  158   4.243   5.738   4.398 -0.0450  0.0068 -0.0812
    3TYR    SC2  159   4.006   5.609   4.401  0.0725 -0.2207  0.3010
    3TYR    SC3  160   4.081   5.759   4.613  0.2007 -0.0077  0.1111
    1TYR     BB  161   1.421   3.816   2.662  0.0778  0.0189 -0.0222
    1TYR    SC1  162   1.118   3.702   2.705 -0.1527  0.0391  0.1489
    1TYR    SC2  163   1.022   3.453   2.747  0.0795 -0.1129 -0.1653
    1TYR    SC3  164   0.865   3.640   2.632 -0.1110 -0.0938  0.1122
    2CYS     BB  165   1.664   3.768   2.397  0.2138 -0.1427 -0.2032
    2CYS    SC1  166   1.520   3.863   2.159 -0.0782  0.1401  0.2907
    3TYR     BB  167   1.846   3.533   2.342  0.0875  0.3175 -0.1622
    3TYR    SC1  168   2.074   3.465   2.186  0.2255  0.4225  0.1578
    3TYR    SC2  169   2.157   3.298   1.990 -0.0200  0.4256  0.0460
    3TYR    SC3  170   2.332   3.469   2.105  0.1493  0.3562 -0.1013
    1TYR     BB  171   4.907   4.372   5.620 -0.2859 -0.0915 -0.1278
    1TYR    SC1  172   5.115   4.253   5.419  0.1221  0.0919  0.1378
    1TYR    SC2  173   5.211   4.352   5.187 -0.2139 -0.0485 -0.0712
    1TYR    SC3  174   5.192   4.085   5.222  0.2612 -0.0502  0.3090
    2CYS     BB  175   4.914   4.705   5.600 -0.2258 -0.1151  0.1163
    2CYS    SC1  176   4.845   4.764   5.321  0.1541 -0.2905 -0.1295
    3TYR     BB  177   5.297   4.676   5.541 -0.0902 -0.1087  0.0254
    3TYR    SC1  178   5.361   4.749   5.276  0.0262  0.0332  0.1127
    3TYR    SC2  179   5.406   4.746   5.010 -0.4650 -0.0449  0.0178
    3TYR    SC3  180   5.297   4.964   5.126 -0.0978  0.0550  0.1947
    1TYR     BB  181   2.579   6.150   1.157 -0.1402 -0.0936  0.4654
    1TYR    SC1  182   2.840   6.198   1.294 -0.1689  0.1101  0.1347
    1TYR    SC2  183   2.966   6.349   1.478  0.2955 -0.0434 -0.0399
    1TYR    SC3  184   2.941   6.083   1.516  0.1846 -0.0413 -0.0937
    2CYS     BB  185   2.397   6.093   1.488 -0.2384  0.1371  0.0719
    2CYS    SC1  186   2.210   5.873   1.394  0.3406 -0.0717 -0.2180
    3TYR     BB  187   2.466   6.317   1.626 -0.0874 -0.0140  0.2928
    3TYR    SC1  188   2.567   6.547   1.473  0.2111 -0.6109  0.0049
    3TYR    SC2  189   2.705   6.778   1.453 -0.2483 -0.3045  0.1564
    3TYR    SC3  190   2.677   6.619   1.237 -0.0888 -0.1231 -0.0026
    1TYR     BB  191   5.472   5.844   4.286 -0.3169  0.1969 -0.1741
    1TYR    SC1  192   5.738   5.626   4.205 -0.0246 -0.0735  0.1480
    1TYR    SC2  193   5.836   5.572   3.960 -0.3513  0.1386 -0.0384
    1TYR    SC3  194   5.984   5.518   4.179  0.0778  0.2310 -0.2903
    2CYS     BB  195   5.484   5.928   4.603 -0.1591 -0.0240  0.1354
    2CYS    SC1  196   5.644   5.673   4.678 -0.1972 -0.2464 -0.4369
    3TYR     BB  197   5.279   6.150   4.613 -0.1844  0.0071  0.0180
    3TYR    SC1  198   5.143   6.311   4.827 -0.0728  0.1302 -0.3491
    3TYR    SC2  199   4.881   6.353   4.879 -0.0579  0.3119 -0.4100
    3TYR    SC3  200   5.053   6.561   4.873  0.2195  0.1395  0.3020
    1TYR     BB  201   1.724   1.618   2.658 -0.3139  0.0006  0.3747
    1TYR    SC1  202   2.038   1.582   2.767  0.1506 -0.1165  0.0892
    1TYR    SC2  203   2.263   1.538   2.912  0.1943  0.0315  0.0683
    1TYR    SC3  204   2.281   1.628   2.658  0.1091  0.4110  0.1891
    2CYS     BB  205   1.586   1.754   2.865  0.0963  0.2646  0.1575
    2CYS    SC1  206   1.558   2.034   2.871 -0.4857 -0.2397 -0.0160
    3TYR     BB  207   1.397   1.624   3.033 -0.1005 -0.1156  0.0800
    3TYR    SC1  208   1.134   1.792   3.012 -0.0574  0.0663 -0.2325
    3TYR    SC2  209   0.936   1.916   3.147  0.2384  0.0622  0.2343
    3TYR    SC3  210   0.887   1.810   2.904 -0.3292  0.0490  0.3356
    1TYR     BB  211   1.593   3.256   3.530  0.1875 -0.0396  0.1450
    1TYR    SC1  212   1.349   3.444   3.552 -0.2557  0.2073 -0.1000
    1TYR    SC2  213   1.088   3.482   3.494 -0.3234  0.0589  0.0958
    1TYR    SC3  214   1.181   3.538   3.741 -0.1269  0.2910 -0.0255
    2CYS     BB  215   1.640   2.972   3.326  0.0773  0.2504 -0.0236
    2CYS    SC1  216   1.743   3.037   3.080  0.1619  0.2119  0.0930
    3TYR     BB  217   1.413   2.790   3.277  0.0612  0.0324  0.0760
    3TYR    SC1  218   1.243   2.538   3.094  0.2440 -0.1197 -0.1781
    3TYR    SC2  219   1.126   2.478   2.858  0.3391 -0.2507 -0.1936
    3TYR    SC3  220   1.162   2.286   3.044  0.4074 -0.1825 -0.1352
    1TYR     BB  221   2.308   2.504   3.168 -0.0316 -0.0573  0.2345
    1TYR    SC1  222   1.999   2.417   3.185  0.0124  0.1214  0.0043
    1TYR    SC2  223   1.745   2.438   3.095 -0.0384  0.2770  0.1772
    1TYR    SC3  224   1.796   2.446   3.361  0.1395  0.1493  0.1496
    2CYS     BB  225   2.458   2.256   3.291 -0.3334 -0.0955  0.1421
    2CYS    SC1  226   2.682   2.125   3.144  0.0216  0.0190 -0.0688
    3TYR     BB  227   2.604   2.260   3.623 -0.1797  0.0369 -0.0440
    3TYR    SC1  228   2.349   2.134   3.709 -0.0055  0.1031 -0.3401
    3TYR    SC2  229   2.179   1.962   3.830  0.2504  0.0044 -0.1069
    3TYR    SC3  230   2.091   2.122   3.631 -0.1533  0.0736  0.1139
    1TYR     BB  231   4.781   6.896   4.655  0.0360  0.2319  0.0144
    1TYR    SC1  232   4.767   6.926   4.953  0.4459  0.1670  0.0961
    1TYR    SC2  233   4.801   6.846   5.208  0.2138 -0.2436  0.0093
    1TYR    SC3  234   4.567   6.957   5.132  0.2638 -0.1697 -0.0375
    2CYS     BB  235   4.579   7.121   4.489  0.0102 -0.0441 -0.2084
    2CYS    SC1  236   4.427   7.266   4.675  0.1660 -0.1674 -0.0570
    3TYR     BB  237   4.635   7.152   4.228 -0.0306  0.0140  0.2276
    3TYR    SC1  238   4.427   7.284   4.052  0.2108 -0.0006 -0.1937
    3TYR    SC2  239   4.475   7.538   3.973 -0.1239  0.2267  0.2739
    3TYR    SC3  240   4.372   7.360   3.798  0.2863  0.3463 -0.1128
    1TYR     BB  241   3.573   6.550   5.297 -0.1689  0.3777 -0.2044
    1TYR    SC1  242   3.710   6.745   5.550 -0.0654 -0.0067  0.2081
    1TYR    SC2  243   3.858   6.864   5.741  0.0105  0.2558 -0.0059
    1TYR    SC3  244   3.616   6.963   5.677 -0.1057  0.0447  0.0919
    2CYS     BB  245   3.667   6.286   5.335 -0.2087  0.1272  0.0639
    2CYS    SC1  246   3.461   6.115   5.339  0.6292 -0.0929 -0.1178
    3TYR     BB  247   3.930   6.299   5.488 -0.2123  0.1574 -0.4048
    3TYR    SC1  248   3.955   6.425   5.758  0.0032 -0.2856  0.3799
    3TYR    SC2  249   3.883   6.456   6.016 -0.2322  0.3936  0.2586
    3TYR    SC3  250   4.127   6.537   5.933 -0.0769 -0.0119  0.2897
    1TYR     BB  251   2.286   3.344   2.614 -0.2057  0.2908  0.3679
    1TYR    SC1  252   2.543   3.518   2.776 -0.0785  0.3677 -0.0158
    1TYR    SC2  253   2.721   3.496   2.978  0.1212  0.1799 -0.2060
    1TYR    SC3  254   2.739   3.702   2.805 -0.0008  0.2962 -0.0837
    2CYS     BB  255   2.047   3.441   2.836 -0.2829 -0.1471  0.2226
    2CYS    SC1  256   1.921   3.714   2.841  0.1380 -0.0609  0.1276
    3TYR     BB  257   2.197   3.472   3.109  0.0610  0.2772 -0.1038
    3TYR    SC1  258   2.313   3.731   3.125  0.1623 -0.1175 -0.0149
    3TYR    SC2  259   2.530   3.873   3.200  0.1424 -0.0107 -0.1549
    3TYR    SC3  260   2.387   3.949   2.984 -0.1277  0.0130  0.0257
    1TYR     BB  261   2.732   5.346   1.825  0.2702 -0.0112 -0.3062
    1TYR    SC1  262   2.652   5.176   1.587 -0.0463 -0.0686 -0.0451
    1TYR    SC2  263   2.476   5.212   1.385  0.0931  0.5267 -0.0848
    1TYR    SC3  264   2.674   5.030   1.361 -0.4277 -0.0861 -0.0797
    2CYS     BB  265   2.671   5.638   1.753  0.2180  0.2497  0.2544
    2CYS    SC1  266   2.653   5.686   1.443  0.0497 -0.1649  0.0477
    3TYR     BB  267   2.635   5.953   1.924  0.1648 -0.3655 -0.0187
    3TYR    SC1  268   2.967   6.067   1.954  0.1481 -0.1223 -0.1651
    3TYR    SC2  269   3.177   6.236   1.935  0.1999 -0.1504  0.0972
    3TYR    SC3  270   3.187   6.027   2.106 -0.0615 -0.1233  0.1517
    1TYR     BB  271   4.012   4.723   5.531  0.1064  0.0130  0.1477
    1TYR    SC1  272   3.818   4.584   5.321 -0.1476 -0.1386  0.3033
    1TYR    SC2  273   3.614   4.587   5.144 -0.0768 -0.2748  0.2182
    1TYR    SC3  274   3.654   4.370   5.300 -0.2544 -0.0846  0.5413
    2CYS     BB  275   3.994   4.635   5.885  0.2207 -0.1051  0.1968
    2CYS    SC1  276   4.021   4.915   5.994 -0.1675  0.1046  0.1481
    3TYR     BB  277   3.919   4.313   5.933  0.1212  0.0745  0.0963
    3TYR    SC1  278   3.987   4.187   5.662 -0.2380  0.0951 -0.1512
    3TYR    SC2  279   4.094   4.210   5.415 -0.0945 -0.1712 -0.1184
    3TYR    SC3  280   3.942   3.996   5.477 -0.0724 -0.1412  0.0457
    1TYR     BB  281   1.785   1.606   3.829  0.2361 -0.1458  0.0051
    1TYR    SC1  282   1.627   1.525   3.633  0.2772  0.5410 -0.4823
    1TYR    SC2  283   1.390   1.585   3.517 -0.2632  0.0084  0.2285
    1TYR    SC3  284   1.505   1.345   3.472 -0.0669  0.1043  0.2051
    2CYS     BB  285   1.615   1.968   3.832 -0.0681  0.1719  0.0129
    2CYS    SC1  286   1.328   1.929   3.914 -0.3210  0.0325  0.1955
    3TYR     BB  287   1.661   2.347   3.919 -0.0902  0.1362 -0.1959
    3TYR    SC1  288   1.964   2.455   3.863  0.0425 -0.0762  0.0155
    3TYR    SC2  289   2.096   2.578   3.663 -0.1049 -0.0322 -0.0570
    3TYR    SC3  290   2.217   2.540   3.901  0.1701 -0.3271 -0.2335
    1TYR     BB  291   5.047   5.274   3.566 -0.0639  0.1092  0.3643
    1TYR    SC1  292   4.732   5.266   3.636 -0.2674 -0.3251  0.0468
    1TYR    SC2  293   4.483   5.166   3.663 -0.3905  0.0098  0.2203
    1TYR    SC3  294   4.622   5.243   3.882 -0.1990 -0.0197  0.1116
    2CYS     BB  295   5.139   5.513   3.636  0.1334 -0.1777 -0.2263
    2CYS    SC1  296   5.300   5.462   3.930 -0.1159  0.3946 -0.1744
    3TYR     BB  297   4.983   5.858   3.600 -0.1511  0.1004 -0.0151
    3TYR    SC1  298   4.712   5.843   3.729  0.1081  0.0984  0.2864
    3TYR    SC2  299   4.457   5.927   3.708  0.1203  0.0850  0.0613
    3TYR    SC3  300   4.512   5.663   3.725  0.1234  0.0826  0.0169
    1TYR     BB  301   4.147   4.556   4.382 -0.0368 -0.1780 -0.0034
    1TYR    SC1  302   4.455   4.702   4.336  0.2727 -0.4088  0.1446
    1TYR    SC2  303   4.676   4.856   4.352  0.2868 -0.4331  0.1872
    1TYR    SC3  304   4.522   4.863   4.130 -0.0297  0.0722  0.4004
    2CYS     BB  305   3.958   4.749   4.194 -0.0977  0.1207 -0.0546
    2CYS    SC1  306   4.085   4.693   3.883 -0.1551 -0.0761  0.1548
    3TYR     BB  307   3.632   4.766   4.392 -0.0880 -0.0426 -0.0734
    3TYR    SC1  308   3.592   4.519   4.494 -0.1344 -0.0365  0.0516
    3TYR    SC2  309   3.769   4.315   4.494  0.2487  0.2782 -0.1870
    3TYR    SC3  310   3.611   4.356   4.709  0.3785 -0.0807 -0.0124
    1TYR     BB  311   2.868   6.727   2.663  0.1073  0.0364  0.1086
    1TYR    SC1  312   3.046   6.683   2.879  0.1169  0.2885 -0.0478
    1TYR    SC2  313   3.217   6.609   3.075 -0.1705  0.0007  0.1052
    1TYR    SC3  314   3.195   6.869   3.007  0.2858  0.0513  0.1131
    2CYS     BB  315   2.906   6.643   2.389 -0.3617  0.2400  0.0448
    2CYS    SC1  316   3.095   6.819   2.236 -0.0963 -0.0209 -0.0214
    3TYR     BB  317   2.827   6.361   2.334 -0.1199  0.0392  0.1382
    3TYR    SC1  318   2.986   6.178   2.487 -0.1240 -0.1316  0.1976
    3TYR    SC2  319   3.048   6.113   2.741  0.3223  0.0661  0.1503
    3TYR    SC3  320   3.218   6.052   2.540  0.1587  0.2554 -0.0516
    1TYR     BB  321   5.317   5.380   4.370 -0.1216 -0.0851 -0.0541
    1TYR    SC1  322   5.012   5.346   4.392  0.0272  0.0381  0.4101
    1TYR    SC2  323   4.855   5.213   4.567 -0.2853  0.0234  0.1320
    1TYR    SC3  324   4.761   5.274   4.321  0.1908 -0.0887 -0.0914
    2CYS     BB  325   5.669   5.223   4.478  0.1204 -0.0316  0.3584
    2CYS    SC1  326   5.607   5.129   4.753 -0.0514 -0.0476  0.1563
    3TYR     BB  327   5.972   5.076   4.399  0.1921 -0.4556 -0.0366
    3TYR    SC1  328   6.231   5.267   4.440 -0.3631  0.4744  0.2984
    3TYR    SC2  329   6.446   5.305   4.281 -0.1349 -0.4048  0.3336
    3TYR    SC3  330   6.444   5.406   4.532 -0.0939  0.2030  0.1093
    1TYR     BB  331   2.304   1.778   3.305 -0.2030  0.3801 -0.1266
    1TYR    SC1  332   2.431   1.736   3.567 -0.3090 -0.4368 -0.0108
    1TYR    SC2  333   2.664   1.723   3.702 -0.1398  0.3178 -0.1700
    1TYR    SC3  334   2.452   1.576   3.784  0.2469 -0.0470  0.2517
    2CYS     BB  335   1.954   1.720   3.314 -0.2728 -0.1172 -0.0386
    2CYS    SC1  336   1.903   1.461   3.216  0.0601  0.0380  0.0021
    3TYR     BB  337   1.730   1.937   3.347  0.3869 -0.0015 -0.0032
    3TYR    SC1  338   1.452   2.111   3.371 -0.0465 -0.2152  0.0590
    3TYR    SC2  339   1.193   2.112   3.446 -0.1003  0.1018 -0.1065
    3TYR    SC3  340   1.350   2.324   3.502  0.0989 -0.0448 -0.0969
    1TYR     BB  341   6.506   5.913   5.774 -0.2932 -0.3055  0.1688
    1TYR    SC1  342   6.617   5.954   5.499 -0.0955  0.0677 -0.2258
    1TYR    SC2  343   6.578   6.166   5.336  0.0455  0.2185 -0.0681
    1TYR    SC3  344   6.706   5.947   5.244  0.0382  0.2635 -0.1876
    2CYS     BB  345   6.384   5.625   5.789 -0.1542 -0.4738 -0.1722
    2CYS    SC1  346   6.467   5.465   5.535 -0.1022  0.0090 -0.0085
    3TYR     BB  347   6.143   5.705   6.065  0.1344  0.1519 -0.2976
    3TYR    SC1  348   6.270   5.918   6.198  0.0306  0.0920  0.1788
    3TYR    SC2  349   6.164   6.083   6.384  0.3065  0.2193  0.2306
    3TYR    SC3  350   6.431   6.078   6.345  0.2745  0.0137  0.0055
    1TYR     BB  351   2.330   0.571   1.402  0.0209  0.0814 -0.3324
    1TYR    SC1  352   2.296   0.800   1.191 -0.1750  0.0276  0.0463
    1TYR    SC2  353   2.177   0.825   0.950 -0.1334  0.0034  0.0232
    1TYR    SC3  354   2.371   0.997   1.022  0.0033 -0.1175 -0.0486
    2CYS     BB  355   2.396   0.655   1.783 -0.1460 -0.1872  0.0934
    2CYS    SC1  356   2.694   0.640   1.816  0.0059 -0.0807  0.1743
    3TYR     BB  357   2.227   0.766   1.955  0.2316  0.2895 -0.1385
    3TYR    SC1  358   2.386   0.842   2.240 -0.0935 -0.1635  0.0936
    3TYR    SC2  359   2.410   0.661   2.439  0.2841 -0.1783  0.0429
    3TYR    SC3  360   2.550   0.892   2.449 -0.2123  0.1380  0.1216
    1TYR     BB  361   5.465   6.587   5.902  0.5966 -0.6603 -0.3901
    1TYR    SC1  362   5.467   6.765   5.687 -0.1334  0.0226 -0.1902
    1TYR    SC2  363   5.596   6.876   5.477 -0.0107  0.2995  0.0237
    1TYR    SC3  364   5.513   7.031   5.682  0.2267 -0.0086  0.3695
    2CYS     BB  365   5.244   6.630   6.182 -0.1156  0.1695 -0.1457
    2CYS    SC1  366   5.038   6.403   6.077  0.2800 -0.1246 -0.0945
    3TYR     BB  367   5.103   6.837   6.277 -0.1132 -0.2707 -0.2405
    3TYR    SC1  368   4.767   6.811   6.241  0.2168  0.1606  0.2603
    3TYR    SC2  369   4.577   6.967   6.352  0.3899  0.7792 -0.2325
    3TYR    SC3  370   4.521   6.822   6.131  0.2803  0.2432  0.1221
    1TYR     BB  371   4.935   5.803   4.618 -0.2637 -0.2314  0.1070
    1TYR    SC1  372   4.979   5.874   4.321 -0.3292  0.0940 -0.0760
    1TYR    SC2  373   4.955   5.747   4.084 -0.0875 -0.1052 -0.0001
    1TYR    SC3  374   5.048   6.000   4.093  0.1309 -0.1786 -0.1049
    2CYS     BB  375   5.005   5.678   4.920  0.0697  0.0192  0.2935
    2CYS    SC1  376   5.148   5.877   5.087  0.2243 -0.4539  0.1077
    3TYR     BB  377   5.235   5.457   4.915 -0.3929 -0.0745  0.3445
    3TYR    SC1  378   5.471   5.542   5.131  0.0318 -0.0455 -0.0802
    3TYR    SC2  379   5.670   5.688   5.241 -0.1260  0.2703 -0.1965
    3TYR    SC3  380   5.451   5.625   5.387  0.0091  0.0072 -0.0988
    1TYR     BB  381   4.626   6.654   5.677 -0.0220 -0.1446 -0.1103
    1TYR    SC1  382   4.861   6.877   5.709  0.0278  0.2550  0.0613
    1TYR    SC2  383   4.933   7.129   5.644  0.2922  0.1400 -0.1146
    1TYR    SC3  384   5.091   6.981   5.806  0.3394 -0.0396 -0.3198
    2CYS     BB  385   4.394   6.776   5.607  0.3925 -0.1681  0.1287
    2CYS    SC1  386   4.206   6.740   5.372  0.1309  0.3723  0.1319
    3TYR     BB  387   4.410   7.094   5.685  0.0296  0.0309  0.2188
    3TYR    SC1  388   4.358   7.279   5.393  0.3876 -0.0855  0.1554
    3TYR    SC2  389   4.317   7.364   5.140 -0.1916 -0.0071  0.2583
    3TYR    SC3  390   4.425   7.531   5.323  0.0127  0.0135  0.1220
    1TYR     BB  391   5.188   4.784   6.032  0.1739 -0.2126 -0.0321
    1TYR    SC1  392   5.033   4.599   6.201  0.0336  0.1518  0.2896
    1TYR    SC2  393   4.884   4.373   6.188  0.4093 -0.0945 -0.0566
    1TYR    SC3  394   4.846   4.549   6.389 -0.0314 -0.3614  0.1108
    2CYS     BB  395   5.214   5.050   6.031 -0.1913  0.0996 -0.0044
    2CYS    SC1  396   5.455   5.250   6.046  0.0884 -0.1229  0.1844
    3TYR     BB  397   4.954   5.234   5.984 -0.2394 -0.0159 -0.2179
    3TYR    SC1  398   4.708   5.130   6.079  0.0267 -0.2471 -0.0782
    3TYR    SC2  399   4.525   4.933   6.075 -0.0715 -0.1728  0.2808
    3TYR    SC3  400   4.465   5.170   6.190  0.1580 -0.0494  0.1533
    1TYR     BB  401   6.144   4.458   4.704  0.2943  0.0958 -0.0447
    1TYR    SC1  402   6.279   4.398   5.017 -0.2086 -0.2546  0.3687
    1TYR    SC2  403   6.404   4.354   5.252  0.3086 -0.0436  0.1525
    1TYR    SC3  404   6.399   4.602   5.147 -0.1886 -0.0733  0.0765
    2CYS     BB  405   5.933   4.694   4.717 -0.0092  0.1788 -0.1711
    2CYS    SC1  406   5.924   4.800   4.989 -0.1176  0.0180 -0.0231
    3TYR     BB  407   5.704   4.623   4.511  0.0946  0.1444 -0.0081
    3TYR    SC1  408   5.802   4.657   4.191  0.3699 -0.0275  0.1214
    3TYR    SC2  409   5.766   4.590   3.932  0.0100  0.3397  0.0656
    3TYR    SC3  410   6.012   4.576   4.041  0.1151 -0.1244 -0.1981
    1TYR     BB  411   0.855   2.521   2.446  0.0714 -0.0407  0.3751
    1TYR    SC1  412   0.716   2.339   2.277 -0.1009  0.1768 -0.0402
    1TYR    SC2  413   0.674   2.224   2.036 -0.2125  0.1712 -0.0187
    1TYR    SC3  414   0.508   2.171   2.243 -0.0429  0.0756  0.0959
    2CYS     BB  415   1.206   2.446   2.283  0.3299  0.0624  0.1486
    2CYS    SC1  416   1.192   2.187   2.161  0.0194 -0.1251  0.1913
    3TYR     BB  417   1.303   2.722   2.319 -0.2939 -0.3916  0.0853
    3TYR    SC1  418   1.216   2.884   2.569  0.0973  0.0255  0.0943
    3TYR    SC2  419   1.294   2.955   2.818  0.0499  0.1320  0.0795
    3TYR    SC3  420   1.045   3.015   2.733  0.0344  0.0126  0.0393
    1TYR     BB  421   3.952   5.791   5.538  0.0973 -0.1164 -0.0344
    1TYR    SC1  422   3.708   5.771   5.710  0.2650 -0.1826 -0.0103
    1TYR    SC2  423   3.590   5.965   5.856  0.1538 -0.1611 -0.1256
    1TYR    SC3  424   3.441   5.766   5.751  0.2126 -0.1121 -0.3075
    2CYS     BB  425   3.829   5.709   5.218  0.1267 -0.1360 -0.2584
    2CYS    SC1  426   3.839   5.948   5.036  0.0333  0.2829  0.1463
    3TYR     BB  427   3.603   5.535   5.183  0.2366  0.2975 -0.3159
    3TYR    SC1  428   3.336   5.590   5.352  0.1177 -0.0006  0.2340
    3TYR    SC2  429   3.118   5.737   5.412  0.1342  0.1587 -0.0741
    3TYR    SC3  430   3.130   5.477   5.485 -0.1186  0.1713  0.0241
    1TYR     BB  431   2.258   6.723   1.858 -0.1074  0.0515  0.1364
    1TYR    SC1  432   2.198   6.768   1.585 -0.0215  0.0767  0.1259
    1TYR    SC2  433   2.220   6.856   1.331  0.2563 -0.1564  0.0628
    1TYR    SC3  434   2.095   6.622   1.382 -0.1734  0.0880  0.1931
    2CYS     BB  435   2.525   6.842   1.970 -0.0685 -0.1333 -0.0761
    2CYS    SC1  436   2.739   6.639   1.890 -0.0874 -0.2840 -0.4313
    3TYR     BB  437   2.622   7.071   2.190 -0.1943 -0.0136  0.2111
    3TYR    SC1  438   2.860   7.206   2.020  0.2120 -0.3446  0.0389
    3TYR    SC2  439   3.008   7.405   1.913 -0.0660 -0.1378  0.0231
    3TYR    SC3  440   3.039   7.151   1.825  0.2564 -0.0986  0.0058
    1TYR     BB  441   2.405   6.752   3.526 -0.2359 -0.1689  0.1141
    1TYR    SC1  442   2.302   6.496   3.425 -0.0072  0.2211  0.1499
    1TYR    SC2  443   2.110   6.323   3.345  0.1319  0.1677 -0.0817
    1TYR    SC3  444   2.336   6.351   3.199  0.1708  0.4495  0.0240
    2CYS     BB  445   2.679   6.970   3.645  0.0300  0.0796  0.1053
    2CYS    SC1  446   2.966   6.850   3.608  0.1072 -0.2634 -0.1807
    3TYR     BB  447   2.661   7.217   3.573 -0.1257 -0.2541  0.0187
    3TYR    SC1  448   2.817   7.507   3.666 -0.2043 -0.0055  0.7867
    3TYR    SC2  449   3.053   7.632   3.709  0.0416  0.0623 -0.3659
    3TYR    SC3  450   2.823   7.772   3.721  0.1039  0.1425  0.1644
    1TYR     BB  451   1.982   2.793   1.783  0.0460 -0.3600 -0.0724
    1TYR    SC1  452   1.802   2.771   1.540 -0.0645  0.3653 -0.1590
    1TYR    SC2  453   1.579   2.887   1.441 -0.3748 -0.1589 -0.1216
    1TYR    SC3  454   1.647   2.637   1.364 -0.0315 -0.1732  0.1905
    2CYS     BB  455   2.113   2.456   1.775 -0.0627  0.4716  0.2065
    2CYS    SC1  456   1.920   2.281   1.632  0.1980 -0.2186  0.0751
    3TYR     BB  457   2.273   2.395   1.993 -0.0322 -0.2113 -0.0461
    3TYR    SC1  458   2.550   2.610   1.957  0.0269 -0.3109 -0.4370
    3TYR    SC2  459   2.770   2.724   1.850  0.0262  0.0315 -0.0996
    3TYR    SC3  460   2.534   2.854   1.844 -0.0100 -0.0154  0.1599
    1TYR     BB  461   2.544   6.349   2.754 -0.1318 -0.4743  0.2745
    1TYR    SC1  462   2.687   6.398   3.013 -0.1505 -0.1893 -0.0016
    1TYR    SC2  463   2.796   6.500   3.238 -0.0960  0.2237 -0.2035
    1TYR    SC3  464   2.892   6.270   3.133 -0.0145  0.1135  0.1000
    2CYS     BB  465   2.497   6.061   2.720  0.1276 -0.2244 -0.0898
    2CYS    SC1  466   2.582   5.875   2.945 -0.2823  0.0459  0.2183
    3TYR     BB  467   2.508   5.935   2.417  0.1420  0.2623 -0.0129
    3TYR    SC1  468   2.790   5.814   2.384  0.2457 -0.0065  0.1728
    3TYR    SC2  469   3.004   5.672   2.468  0.2879 -0.1613 -0.1726
    3TYR    SC3  470   2.893   5.619   2.228 -0.1517 -0.0930  0.0036
    1TYR     BB  471   5.668   6.349   5.492 -0.1908 -0.0929  0.0870
    1TYR    SC1  472   5.458   6.192   5.563 -0.1826  0.3858 -0.1376
    1TYR    SC2  473   5.287   5.983   5.563  0.2602 -0.0157  0.4361
    1TYR    SC3  474   5.214   6.217   5.676 -0.0744 -0.0019  0.2110
    2CYS     BB  475   5.969   6.189   5.483  0.0188  0.2819 -0.0470
    2CYS    SC1  476   6.014   5.993   5.709 -0.1443 -0.0108  0.3122
    3TYR     BB  477   6.189   6.416   5.530  0.1737 -0.0827 -0.0789
    3TYR    SC1  478   6.371   6.543   5.365 -0.3027 -0.0921 -0.1243
    3TYR    SC2  479   6.582   6.607   5.208 -0.4036  0.1235 -0.1764
    3TYR    SC3  480   6.409   6.799   5.288 -0.2318  0.0652  0.3884
    1TYR     BB  481   1.758   7.289   3.033  0.0346  0.1825  0.4569
    1TYR    SC1  482   1.932   7.551   2.959  0.0435 -0.1454  0.2826
    1TYR    SC2  483   2.193   7.617   2.933 -0.0422  0.0221 -0.3779
    1TYR    SC3  484   2.007   7.811   2.963 -0.1136 -0.0874 -0.0700
    2CYS     BB  485   1.982   7.121   3.234  0.0948 -0.0074  0.1656
    2CYS    SC1  486   1.983   6.814   3.276 -0.1121 -0.1717 -0.1076
    3TYR     BB  487   2.287   7.242   3.243  0.0021  0.2353 -0.2548
    3TYR    SC1  488   2.443   7.029   3.138 -0.2066  0.0074  0.0967
    3TYR    SC2  489   2.423   6.798   2.999  0.0027  0.0191  0.0431
    3TYR    SC3  490   2.666   6.894   3.068 -0.0466  0.4550 -0.3277
    1TYR     BB  491   1.399   0.442   3.532  0.0393  0.3345  0.0145
    1TYR    SC1  492   1.226   0.197   3.522  0.3156 -0.2299 -0.0369
    1TYR    SC2  493   0.974   0.137   3.599  0.2371  0.3864  0.2647
    1TYR    SC3  494   1.180  -0.019   3.677  0.0005  0.1515  0.4397
    2CYS     BB  495   1.243   0.663   3.535 -0.0089  0.0284 -0.1594
    2CYS    SC1  496   0.969   0.642   3.705 -0.2432 -0.0884  0.0390
    3TYR     BB  497   1.324   0.859   3.214  0.0085  0.0559  0.2632
    3TYR    SC1  498   1.210   1.135   3.119 -0.1796 -0.0858  0.2782
    3TYR    SC2  499   1.021   1.311   3.198 -0.0684  0.0929  0.1555
    3TYR    SC3  500   1.058   1.262   2.935  0.0687  0.0748  0.1773
    1TYR     BB  501   2.033   6.516   2.832 -0.0112 -0.1128  0.0014
    1TYR    SC1  502   2.017   6.272   2.647 -0.0087  0.2512 -0.0459
    1TYR    SC2  503   1.836   6.071   2.631 -0.1306  0.3471  0.0925
    1TYR    SC3  504   2.010   6.113   2.429  0.0349 -0.0261  0.1480
    2CYS     BB  505   1.948   6.850   2.763  0.0664  0.1737 -0.3215
    2CYS    SC1  506   1.681   6.867   2.692  0.0613 -0.1966  0.3523
    3TYR     BB  507   2.106   7.105   2.721 -0.0319 -0.0773 -0.0408
    3TYR    SC1  508   2.165   7.180   2.433  0.0351 -0.1217 -0.1715
    3TYR    SC2  509   2.138   7.148   2.166 -0.1686 -0.2381 -0.1398
    3TYR    SC3  510   2.205   7.389   2.268 -0.1174 -0.1863 -0.2935
    1TYR     BB  511   2.935   4.867   1.822  0.0004  0.1704  0.2423
    1TYR    SC1  512   2.953   5.056   2.076  0.0058  0.0624 -0.0622
    1TYR    SC2  513   2.916   5.203   2.299  0.0491  0.2067 -0.1491
    1TYR    SC3  514   3.126   5.035   2.282 -0.2333 -0.1946  0.1215
    2CYS     BB  515   2.610   4.764   1.840  0.0227 -0.1716 -0.0808
    2CYS    SC1  516   2.634   4.541   1.625  0.2379  0.1466  0.2399
    3TYR     BB  517   2.319   4.876   1.851 -0.0176 -0.0650 -0.0162
    3TYR    SC1  518   2.224   4.905   1.567 -0.0217 -0.0262  0.0329
    3TYR    SC2  519   2.039   5.047   1.431  0.1161  0.2025  0.0762
    3TYR    SC3  520   2.060   4.781   1.392 -0.1805  0.1812  0.0293
    1TYR     BB  521   5.107   6.354   3.759 -0.0391 -0.0895 -0.1013
    1TYR    SC1  522   5.157   6.319   3.443 -0.1380  0.5190  0.0017
    1TYR    SC2  523   5.133   6.373   3.180 -0.2099 -0.1007 -0.1366
    1TYR    SC3  524   5.236   6.137   3.261  0.0563  0.1787  0.4048
    2CYS     BB  525   5.380   6.484   3.960  0.3553 -0.0337 -0.0072
    2CYS    SC1  526   5.407   6.709   3.817 -0.3759 -0.1030  0.0015
    3TYR     BB  527   5.422   6.308   4.158 -0.2765  0.0129 -0.1696
    3TYR    SC1  528   5.717   6.206   4.156  0.0208 -0.2564  0.7325
    3TYR    SC2  529   5.951   6.232   4.023 -0.2341  0.0592  0.3109
    3TYR    SC3  530   5.914   6.025   4.194  0.1454 -0.3264 -0.0433
    1TYR     BB  531   3.456   6.897   2.554  0.1735  0.1522 -0.2047
    1TYR    SC1  532   3.264   7.122   2.579 -0.0290 -0.2654 -0.0980
    1TYR    SC2  533   3.058   7.259   2.472  0.0791  0.1515  0.1998
    1TYR    SC3  534   3.055   7.192   2.734  0.1446 -0.2032  0.1152
    2CYS     BB  535   3.404   6.553   2.599 -0.0684  0.4157  0.2202
    2CYS    SC1  536   3.434   6.447   2.276 -0.4094 -0.0375  0.2300
    3TYR     BB  537   3.644   6.317   2.718 -0.1287  0.0351  0.1996
    3TYR    SC1  538   3.687   6.073   2.565 -0.1490  0.2257 -0.3500
    3TYR    SC2  539   3.676   5.971   2.315  0.0556 -0.0571 -0.2498
    3TYR    SC3  540   3.856   5.875   2.493 -0.3839 -0.1873  0.1497
    1TYR     BB  541   2.775   1.676   1.699  0.1512 -0.0739  0.1906
    1TYR    SC1  542   2.805   1.997   1.744 -0.1302  0.0339  0.0395
    1TYR    SC2  543   2.813   2.162   1.958  0.1679 -0.0195  0.0738
    1TYR    SC3  544   2.722   2.253   1.720 -0.2686  0.0109  0.2417
    2CYS     BB  545   2.745   1.439   1.968 -0.1186  0.0553  0.2002
    2CYS    SC1  546   2.959   1.507   2.158 -0.0515  0.0076 -0.0478
    3TYR     BB  547   2.708   1.121   1.957  0.2431 -0.0998 -0.0431
    3TYR    SC1  548   2.979   0.978   2.040  0.0205  0.3130 -0.0257
    3TYR    SC2  549   3.112   0.751   2.101 -0.0343  0.1572 -0.4436
    3TYR    SC3  550   3.212   0.990   2.176  0.1501  0.0115 -0.2074
    1TYR     BB  551   5.874   6.354   5.981 -0.0920 -0.0988  0.1891
    1TYR    SC1  552   6.169   6.428   6.037 -0.1714  0.3685  0.0695
    1TYR    SC2  553   6.419   6.341   5.985 -0.3265 -0.0652  0.0033
    1TYR    SC3  554   6.375   6.505   6.194 -0.0134 -0.1349  0.1321
    2CYS     BB  555   5.749   6.471   6.332 -0.3446  0.3552 -0.0275
    2CYS    SC1  556   5.924   6.693   6.404 -0.1247 -0.2023 -0.0005
    3TYR     BB  557   5.736   6.216   6.597 -0.0006  0.0515  0.1864
    3TYR    SC1  558   5.472   6.231   6.646 -0.3671 -0.1698  0.0410
    3TYR    SC2  559   5.283   6.292   6.829 -0.1387  0.5249  0.0845
    3TYR    SC3  560   5.218   6.279   6.567 -0.4150 -0.2258  0.1579
    1TYR     BB  561   3.219   0.022   2.320 -0.0719 -0.1421  0.2354
    1TYR    SC1  562   3.352   0.318   2.370  0.0859 -0.0425 -0.3448
    1TYR    SC2  563   3.476   0.519   2.239  0.0810  0.0389 -0.2266
    1TYR    SC3  564   3.321   0.573   2.453  0.2056 -0.1055 -0.0973
    2CYS     BB  565   2.823   0.074   2.237  0.0968  0.0736  0.0359
    2CYS    SC1  566   2.812   0.370   2.268 -0.3147  0.0660  0.1954
    3TYR     BB  567   2.653  -0.102   2.343 -0.2589  0.0914 -0.1451
    3TYR    SC1  568   2.592  -0.259   2.600  0.1078 -0.0006  0.2001
    3TYR    SC2  569   2.593  -0.255   2.870 -0.2410 -0.0101  0.2071
    3TYR    SC3  570   2.574  -0.490   2.739  0.1153 -0.0227  0.1646
    1TYR     BB  571   2.520   1.831   2.223  0.0576 -0.2346 -0.3084
    1TYR    SC1  572   2.368   1.855   1.997  0.1318  0.0925 -0.0415
    1TYR    SC2  573   2.118   1.927   1.924  0.1343  0.0066 -0.1379
    1TYR    SC3  574   2.324   1.960   1.753  0.1635 -0.0681 -0.1179
    2CYS     BB  575   2.626   2.020   2.470  0.2646  0.2714 -0.2877
    2CYS    SC1  576   2.582   2.279   2.367  0.2620 -0.0234 -0.0044
    3TYR     BB  577   2.709   1.864   2.721  0.0515  0.1726 -0.1987
    3TYR    SC1  578   2.679   1.553   2.602 -0.0486  0.0659  0.1782
    3TYR    SC2  579   2.642   1.357   2.784 -0.0197 -0.2354 -0.1273
    3TYR    SC3  580   2.642   1.298   2.521 -0.1869  0.2083 -0.2381
    1TYR     BB  581   4.746   6.131   5.705 -0.1547 -0.0042  0.1090
    1TYR    SC1  582   4.586   6.207   5.428  0.1226  0.0186 -0.1579
    1TYR    SC2  583   4.348   6.207   5.301 -0.0272 -0.1867  0.1084
    1TYR    SC3  584   4.535   6.392   5.238 -0.1105 -0.2464 -0.3636
    2CYS     BB  585   4.490   6.192   5.896 -0.2687  0.3363 -0.0162
    2CYS    SC1  586   4.265   6.024   5.816 -0.0332 -0.0909  0.5724
    3TYR     BB  587   4.561   6.341   6.138  0.3891  0.1884  0.1488
    3TYR    SC1  588   4.641   6.414   6.432  0.2412  0.2018  0.0869
    3TYR    SC2  589   4.601   6.556   6.658  0.1436 -0.0092  0.2053
    3TYR    SC3  590   4.850   6.532   6.557  0.1509  0.3177  0.1314
    1TYR     BB  591   4.036   5.866   3.964  0.1420  0.1603  0.0506
    1TYR    SC1  592   3.784   5.734   3.965  0.0047  0.1546 -0.6875
    1TYR    SC2  593   3.515   5.747   3.991  0.0437  0.0982 -0.0505
    1TYR    SC3  594   3.635   5.511   3.936 -0.0235  0.0755 -0.1006
    2CYS     BB  595   4.012   6.150   4.065  0.1057 -0.0229  0.3208
    2CYS    SC1  596   3.750   6.295   4.055  0.2221  0.2519  0.3706
    3TYR     BB  597   4.051   6.204   4.403  0.0702  0.0330  0.2054
    3TYR    SC1  598   3.773   6.102   4.532  0.0748 -0.0240  0.0166
    3TYR    SC2  599   3.562   5.986   4.654 -0.0460 -0.0063 -0.1708
    3TYR    SC3  600   3.627   5.916   4.401  0.2408 -0.0901 -0.0788
    1TYR     BB  601   1.370   7.977   1.976 -0.0895  0.1805 -0.0445
    1TYR    SC1  602   1.238   7.702   1.897 -0.3371  0.0044  0.1582
    1TYR    SC2  603   1.138   7.548   1.699  0.2600 -0.1091 -0.0819
    1TYR    SC3  604   1.200   7.437   1.937 -0.1271 -0.0434  0.0586
    2CYS     BB  605   1.695   7.876   2.090  0.0241  0.0463  0.1315
    2CYS    SC1  606   1.813   8.157   2.044 -0.2075 -0.3755  0.1156
    3TYR     BB  607   1.862   7.617   1.996  0.1446  0.2650  0.1400
    3TYR    SC1  608   1.764   7.629   1.659  0.0069 -0.1111  0.0115
    3TYR    SC2  609   1.538   7.607   1.513  0.0854 -0.1505 -0.1062
    3TYR    SC3  610   1.754   7.731   1.408  0.1108 -0.0905  0.0152
    1TYR     BB  611   2.635   3.170   3.299 -0.0864 -0.1226 -0.0599
    1TYR    SC1  612   2.799   2.954   3.320  0.0343  0.1385  0.2263
    1TYR    SC2  613   2.955   2.810   3.154 -0.1396  0.1377  0.0579
    1TYR    SC3  614   2.768   2.686   3.304 -0.2372  0.1780 -0.0294
    2CYS     BB  615   2.395   3.032   3.068  0.0739 -0.1480 -0.0414
    2CYS    SC1  616   2.577   3.025   2.836 -0.2112  0.4187 -0.0521
    3TYR     BB  617   2.172   2.941   3.306  0.2355  0.1303 -0.1520
    3TYR    SC1  618   2.148   3.153   3.510 -0.1716  0.0017 -0.0689
    3TYR    SC2  619   2.061   3.388   3.609 -0.2087 -0.0197 -0.0505
    3TYR    SC3  620   2.089   3.175   3.773  0.2312  0.0825  0.0224
    1TYR     BB  621   1.624   7.290   3.540  0.2320  0.3622 -0.3687
    1TYR    SC1  622   1.560   7.029   3.448  0.0415 -0.1381  0.1716
    1TYR    SC2  623   1.525   6.906   3.211 -0.2492  0.3346 -0.0491
    1TYR    SC3  624   1.397   6.814   3.430 -0.1922  0.0545 -0.1277
    2CYS     BB  625   1.611   7.572   3.437  0.0014 -0.0905  0.1273
    2CYS    SC1  626   1.926   7.621   3.421  0.0738 -0.3398  0.1586
    3TYR     BB  627   1.467   7.663   3.182 -0.1770  0.0170 -0.1552
    3TYR    SC1  628   1.143   7.642   3.133  0.1241  0.5988 -0.1768
    3TYR    SC2  629   0.990   7.625   2.912  0.1800 -0.0629 -0.1874
    3TYR    SC3  630   0.874   7.643   3.155  0.1010 -0.0148 -0.2279
    1TYR     BB  631   5.414   6.737   4.599  0.3068 -0.0569  0.1788
    1TYR    SC1  632   5.563   6.832   4.358  0.3824 -0.0745  0.0014
    1TYR    SC2  633   5.609   7.089   4.289 -0.1230  0.0247 -0.0149
    1TYR    SC3  634   5.699   6.889   4.132 -0.2252  0.2116 -0.3231
    2CYS     BB  635   5.395   6.950   4.818 -0.1203 -0.0235 -0.0972
    2CYS    SC1  636   5.654   7.132   4.841 -0.1412  0.1722 -0.1493
    3TYR     BB  637   5.270   7.009   5.160  0.1292  0.0565  0.0929
    3TYR    SC1  638   5.022   7.279   5.124 -0.1777 -0.0260 -0.0134
    3TYR    SC2  639   4.806   7.344   5.273 -0.2396  0.2881 -0.2268
    3TYR    SC3  640   4.800   7.376   5.005  0.0283  0.1731 -0.2510
    1TYR     BB  641   1.327   0.440   2.981  0.0236 -0.1089 -0.1431
    1TYR    SC1  642   1.064   0.416   3.074 -0.1977  0.6303  0.0919
    1TYR    SC2  643   0.875   0.404   3.266 -0.2896  0.1490 -0.0121
    1TYR    SC3  644   0.804   0.395   3.006 -0.1284 -0.3914 -0.0523
    2CYS     BB  645   1.264   0.328   2.656 -0.0297  0.2174 -0.2027
    2CYS    SC1  646   1.534   0.235   2.583  0.1200  0.1734 -0.1235
    3TYR     BB  647   1.046   0.327   2.512 -0.3591 -0.1624  0.0532
    3TYR    SC1  648   0.954   0.555   2.286  0.0422 -0.0515 -0.0078
    3TYR    SC2  649   0.950   0.687   2.050  0.0552 -0.0943 -0.0322
    3TYR    SC3  650   0.719   0.613   2.168  0.0250  0.3115  0.1868
    1TYR     BB  651   5.078   4.982   3.955  0.1391  0.0854 -0.3087
    1TYR    SC1  652   4.865   4.841   3.782  0.2774  0.0986 -0.2507
    1TYR    SC2  653   4.629   4.732   3.710  0.0925  0.3148  0.0003
    1TYR    SC3  654   4.861   4.613   3.639 -0.0910  0.0240 -0.1345
    2CYS     BB  655   5.193   4.769   4.206 -0.3199  0.0147 -0.2563
    2CYS    SC1  656   5.301   4.492   4.136 -0.0509 -0.3930 -0.1987
    3TYR     BB  657   5.285   4.887   4.463 -0.0336 -0.1920 -0.0531
    3TYR    SC1  658   5.068   4.810   4.681  0.1098 -0.1191 -0.0892
    3TYR    SC2  659   5.025   4.609   4.856 -0.0486 -0.0476 -0.0433
    3TYR    SC3  660   4.846   4.810   4.834  0.1478  0.1345 -0.0274
    1TYR     BB  661   2.680   0.091   1.719 -0.4869 -0.2828  0.3895
    1TYR    SC1  662   2.953   0.194   1.731  0.1227  0.1799 -0.3033
    1TYR    SC2  663   3.082   0.426   1.687  0.1015  0.2892  0.1448
    1TYR    SC3  664   3.130   0.287   1.912  0.1166 -0.1520 -0.1169
    2CYS     BB  665   2.411   0.154   1.881 -0.0103 -0.1316  0.2795
    2CYS    SC1  666   2.207   0.184   1.631  0.2532  0.2621 -0.1989
    3TYR     BB  667   2.312   0.278   2.108 -0.0732 -0.3031 -0.1758
    3TYR    SC1  668   2.130   0.228   2.307  0.1035  0.0173  0.1693
    3TYR    SC2  669   2.015   0.362   2.511 -0.0790 -0.0294  0.0999
    3TYR    SC3  670   2.033   0.093   2.519 -0.2725 -0.0483 -0.0344
    1TYR     BB  671   6.710   5.663   6.155 -0.1163 -0.0612  0.0061
    1TYR    SC1  672   6.502   5.569   6.356  0.1055  0.2235 -0.1837
    1TYR    SC2  673   6.492   5.456   6.601  0.1069  0.2534 -0.1698
    1TYR    SC3  674   6.356   5.685   6.552 -0.1512  0.0813 -0.2852
    2CYS     BB  675   6.793   5.409   5.968 -0.0396  0.0570  0.0930
    2CYS    SC1  676   6.782   5.197   6.203  0.0440  0.0851 -0.4256
    3TYR     BB  677   6.913   5.430   5.666  0.2600  0.0318  0.2066
    3TYR    SC1  678   7.013   5.718   5.645 -0.1290  0.0851  0.1155
    3TYR    SC2  679   7.025   5.977   5.722  0.5179  0.0349  0.2559
    3TYR    SC3  680   7.160   5.895   5.503  0.0570 -0.1396  0.0203
    1TYR     BB  681   1.813   1.118   1.938  0.0440 -0.0341  0.1528
    1TYR    SC1  682   1.851   1.019   2.203  0.2127 -0.0625  0.0215
    1TYR    SC2  683   1.961   0.897   2.417  0.2800 -0.1801 -0.0786
    1TYR    SC3  684   1.838   1.135   2.446  0.0984 -0.2950  0.1300
    2CYS     BB  685   1.759   1.385   1.894  0.4740  0.2177  0.1710
    2CYS    SC1  686   1.544   1.492   1.740  0.0607  0.1519  0.0653
    3TYR     BB  687   1.789   1.619   2.161  0.1393 -0.0643  0.4690
    3TYR    SC1  688   2.045   1.482   2.247 -0.1137  0.1191  0.1573
    3TYR    SC2  689   2.218   1.295   2.337 -0.1120 -0.0033 -0.0885
    3TYR    SC3  690   2.262   1.417   2.100 -0.1562  0.2545  0.0310
    1TYR     BB  691   6.145   5.804   4.726 -0.0320  0.0325  0.1212
    1TYR    SC1  692   6.029   5.535   4.860 -0.4630 -0.1404 -0.0164
    1TYR    SC2  693   6.061   5.268   4.847 -0.1730 -0.1088 -0.0254
    1TYR    SC3  694   5.968   5.381   5.073  0.0918 -0.1865  0.1281
    2CYS     BB  695   6.275   5.958   4.969 -0.0073 -0.3662  0.0447
    2CYS    SC1  696   6.183   5.842   5.225  0.0552  0.2270  0.0572
    3TYR     BB  697   6.218   6.280   5.007  0.1714  0.2322 -0.2364
    3TYR    SC1  698   6.054   6.533   5.039 -0.2842 -0.1689 -0.0042
    3TYR    SC2  699   5.953   6.768   4.954 -0.0682 -0.0121  0.1571
    3TYR    SC3  700   5.944   6.704   5.216  0.3400  0.0619  0.1981
    1TYR     BB  701   5.580   4.714   6.381  0.3331 -0.1091 -0.0050
    1TYR    SC1  702   5.720   4.792   6.142  0.2025  0.0975 -0.0191
    1TYR    SC2  703   5.669   4.750   5.880 -0.0767 -0.0844  0.0589
    1TYR    SC3  704   5.883   4.896   5.954 -0.0496  0.0538 -0.2716
    2CYS     BB  705   5.347   4.963   6.493  0.0032 -0.1030 -0.1353
    2CYS    SC1  706   5.474   5.238   6.551  0.2129 -0.2142 -0.1509
    3TYR     BB  707   4.991   5.006   6.469 -0.1134  0.1148 -0.0932
    3TYR    SC1  708   4.895   5.306   6.486  0.1079 -0.2821 -0.0005
    3TYR    SC2  709   4.732   5.504   6.402  0.1153 -0.2900 -0.0336
    3TYR    SC3  710   4.781   5.473   6.665  0.0016 -0.3360 -0.0172
    1TYR     BB  711   1.772   3.990   3.717  0.3454  0.0079 -0.2028
    1TYR    SC1  712   2.055   3.857   3.734  0.1162  0.0702  0.2086
    1TYR    SC2  713   2.272   3.821   3.578  0.0246  0.1668  0.0552
    1TYR    SC3  714   2.272   3.732   3.833  0.0418 -0.3306 -0.1053
    2CYS     BB  715   1.615   3.832   3.538  0.1809  0.0335  0.1265
    2CYS    SC1  716   1.335   3.918   3.451  0.3126 -0.0422 -0.0726
    3TYR     BB  717   1.758   3.692   3.309  0.0154  0.1587 -0.1208
    3TYR    SC1  718   1.532   3.537   3.120 -0.0694  0.3496  0.0830
    3TYR    SC2  719   1.293   3.413   3.098 -0.0194  0.2723 -0.0346
    3TYR    SC3  720   1.483   3.376   2.909  0.2323  0.0143  0.2536
    1TYR     BB  721   2.180   3.908   2.424 -0.0013  0.1384  0.1095
    1TYR    SC1  722   2.118   3.950   2.108  0.3955 -0.0829 -0.1322
    1TYR    SC2  723   1.951   3.998   1.901  0.0745  0.0578  0.1483
    1TYR    SC3  724   2.138   3.805   1.881 -0.1155 -0.1038 -0.1788
    2CYS     BB  725   2.441   4.082   2.524  0.1839  0.0532  0.0844
    2CYS    SC1  726   2.645   3.909   2.380  0.1645 -0.0880  0.2062
    3TYR     BB  727   2.554   4.349   2.552  0.1460  0.1895 -0.2286
    3TYR    SC1  728   2.833   4.432   2.451  0.0011 -0.1540  0.0983
    3TYR    SC2  729   3.083   4.532   2.467 -0.0475 -0.0267  0.0831
    3TYR    SC3  730   2.919   4.610   2.267 -0.2569  0.2592  0.3533
    1TYR     BB  731   5.768   6.379   4.637 -0.2367 -0.0279  0.3453
    1TYR    SC1  732   5.923   6.628   4.511  0.1130  0.1948 -0.1988
    1TYR    SC2  733   6.091   6.729   4.326  0.2191  0.0489 -0.1843
    1TYR    SC3  734   5.999   6.886   4.524  0.0862  0.2133 -0.3711
    2CYS     BB  735   5.656   6.403   4.869  0.1363  0.2343  0.0144
    2CYS    SC1  736   5.669   6.119   5.000  0.0574  0.4009 -0.3579
    3TYR     BB  737   5.485   6.563   5.089  0.0475 -0.3954 -0.0460
    3TYR    SC1  738   5.266   6.460   5.263  0.2816 -0.1934  0.3326
    3TYR    SC2  739   5.093   6.593   5.422 -0.0502 -0.1744 -0.0254
    3TYR    SC3  740   5.022   6.356   5.314  0.1261 -0.1394 -0.2254
    1TYR     BB  741   2.383   4.463   3.049  0.2182  0.1834  0.3130
    1TYR    SC1  742   2.688   4.346   3.020  0.0645  0.2020 -0.0124
    1TYR    SC2  743   2.772   4.110   2.920 -0.4042  0.0582 -0.0984
    1TYR    SC3  744   2.928   4.329   2.898 -0.0825 -0.1778 -0.2737
    2CYS     BB  745   2.117   4.401   2.825 -0.1503  0.1474  0.0430
    2CYS    SC1  746   2.160   4.663   2.677  0.0002 -0.3384  0.2510
    3TYR     BB  747   1.856   4.215   2.658  0.1300  0.0326 -0.2685
    3TYR    SC1  748   1.668   4.471   2.612 -0.0603 -0.0255 -0.2626
    3TYR    SC2  749   1.620   4.659   2.424  0.0888  0.1781 -0.1028
    3TYR    SC3  750   1.424   4.587   2.595  0.0559  0.2538 -0.1079
    1TYR     BB  751   5.611   4.119   5.471  0.1926 -0.0420 -0.1909
    1TYR    SC1  752   5.479   4.244   5.732 -0.0419 -0.2682 -0.0960
    1TYR    SC2  753   5.506   4.374   5.968 -0.0398 -0.2668 -0.0970
    1TYR    SC3  754   5.275   4.247   5.909 -0.2135  0.1146 -0.2844
    2CYS     BB  755   5.689   4.372   5.268  0.0188  0.2219 -0.0518
    2CYS    SC1  756   5.940   4.505   5.367  0.2172  0.1480  0.2486
    3TYR     BB  757   5.670   4.283   4.955 -0.0842 -0.1386 -0.1704
    3TYR    SC1  758   5.406   4.273   4.831 -0.2900 -0.0439  0.1842
    3TYR    SC2  759   5.284   4.297   4.591  0.2005 -0.4732 -0.1383
    3TYR    SC3  760   5.196   4.115   4.770 -0.0000 -0.3426 -0.1003
    1TYR     BB  761   4.042   4.289   4.948  0.3112 -0.1458  0.1342
    1TYR    SC1  762   4.162   4.032   5.016 -0.2539 -0.1608 -0.3180
    1TYR    SC2  763   4.338   3.868   4.894 -0.1338 -0.1612 -0.1488
    1TYR    SC3  764   4.206   3.785   5.114 -0.1203 -0.0543 -0.0998
    2CYS     BB  765   4.157   4.554   4.905 -0.0243  0.3640 -0.1890
    2CYS    SC1  766   4.430   4.570   4.785 -0.0440  0.0519  0.1368
    3TYR     BB  767   3.975   4.786   4.836 -0.4015  0.0349  0.0025
    3TYR    SC1  768   4.146   4.976   4.609 -0.0863 -0.3800 -0.0272
    3TYR    SC2  769   4.333   5.139   4.502 -0.0641 -0.1750  0.3074
    3TYR    SC3  770   4.071   5.177   4.444 -0.0368 -0.2049  0.1596
    1TYR     BB  771   4.706   4.114   4.883  0.2812  0.1129  0.0231
    1TYR    SC1  772   4.830   3.873   4.934 -0.1803 -0.1651  0.1422
    1TYR    SC2  773   4.963   3.661   5.035 -0.0312 -0.1584 -0.0330
    1TYR    SC3  774   4.707   3.634   4.953 -0.1799 -0.1486  0.3953
    2CYS     BB  775   4.631   4.247   5.181 -0.0686  0.0018 -0.0116
    2CYS    SC1  776   4.601   4.041   5.372  0.1125 -0.0881  0.0216
    3TYR     BB  777   4.465   4.496   5.297 -0.0426 -0.1198  0.0443
    3TYR    SC1  778   4.419   4.450   5.642 -0.0605 -0.3517  0.3206
    3TYR    SC2  779   4.499   4.549   5.880  0.2440 -0.3977  0.2428
    3TYR    SC3  780   4.402   4.297   5.864 -0.1551 -0.2630  0.3755
    1TYR     BB  781   4.256   5.910   3.269  0.0750  0.2201 -0.0964
    1TYR    SC1  782   4.466   5.694   3.253  0.2013  0.1134  0.2850
    1TYR    SC2  783   4.471   5.426   3.284  0.2656  0.0320 -0.2856
    1TYR    SC3  784   4.697   5.558   3.219  0.2168  0.2192 -0.0905
    2CYS     BB  785   4.014   5.752   3.462 -0.3337  0.0988 -0.1603
    2CYS    SC1  786   3.771   5.960   3.513 -0.0124  0.0594 -0.2059
    3TYR     BB  787   4.046   5.470   3.586 -0.0297  0.0298  0.1235
    3TYR    SC1  788   4.145   5.392   3.834 -0.1114 -0.3602 -0.3367
    3TYR    SC2  789   4.275   5.395   4.070  0.0098 -0.0255 -0.4011
    3TYR    SC3  790   4.136   5.176   3.995  0.1254 -0.2061 -0.1082
    1TYR     BB  791   2.465   5.384   2.198  0.0303  0.3780 -0.3672
    1TYR    SC1  792   2.246   5.312   1.914  0.0638 -0.2926  0.0244
    1TYR    SC2  793   2.162   5.419   1.681 -0.0150 -0.0483  0.1600
    1TYR    SC3  794   1.990   5.278   1.834 -0.0033 -0.0831  0.1414
    2CYS     BB  795   2.365   5.081   2.322 -0.1981 -0.1288 -0.1096
    2CYS    SC1  796   2.521   4.838   2.345 -0.5734 -0.0278  0.4299
    3TYR     BB  797   2.085   5.022   2.342  0.2424 -0.0191  0.0862
    3TYR    SC1  798   1.905   4.892   2.141  0.0564 -0.2275  0.0020
    3TYR    SC2  799   1.669   4.984   2.048  0.1888  0.0750 -0.0513
    3TYR    SC3  800   1.824   4.827   1.892  0.1127  0.0373 -0.0898
    1TYR     BB  801   5.649   5.788   5.879 -0.1765 -0.1477 -0.2536
    1TYR    SC1  802   5.764   5.524   5.780 -0.0331 -0.0759 -0.0935
    1TYR    SC2  803   5.942   5.321   5.788  0.1938  0.1250  0.2121
    1TYR    SC3  804   5.945   5.496   5.582  0.2208  0.0155  0.1189
    2CYS     BB  805   5.697   5.942   6.142 -0.0198  0.1544 -0.2009
    2CYS    SC1  806   5.424   6.153   6.113 -0.1984  0.0867  0.3234
    3TYR     BB  807   5.794   5.749   6.473  0.0447 -0.0046 -0.0342
    3TYR    SC1  808   5.902   5.451   6.444  0.0250 -0.0477 -0.0326
    3TYR    SC2  809   6.104   5.284   6.377 -0.0783 -0.2033  0.0379
    3TYR    SC3  810   5.886   5.303   6.218  0.0662  0.1000 -0.1341
    1TYR     BB  811   5.183   5.181   5.542  0.3557  0.0542  0.3113
    1TYR    SC1  812   5.503   5.167   5.521  0.0445  0.3452  0.1658
    1TYR    SC2  813   5.672   5.140   5.312 -0.2244  0.1130 -0.0305
    1TYR    SC3  814   5.721   5.009   5.543 -0.1243  0.0659 -0.0776
    2CYS     BB  815   4.997   5.347   5.360 -0.0370  0.1929  0.0121
    2CYS    SC1  816   4.871   5.240   5.124 -0.0719  0.1535  0.0349
    3TYR     BB  817   4.865   5.663   5.406  0.1362 -0.1393  0.0082
    3TYR    SC1  818   4.567   5.649   5.384 -0.0146 -0.0959  0.3344
    3TYR    SC2  819   4.351   5.486   5.385  0.0768 -0.2383 -0.1178
    3TYR    SC3  820   4.333   5.734   5.280  0.0308 -0.0793  0.2449
    1TYR     BB  821   1.865   7.114   1.737 -0.0085 -0.1327  0.3710
    1TYR    SC1  822   1.734   6.833   1.759 -0.6789  0.2980  0.2869
    1TYR    SC2  823   1.687   6.593   1.876 -0.1910 -0.0069 -0.0914
    1TYR    SC3  824   1.709   6.611   1.607  0.2024  0.3808 -0.0471
    2CYS     BB  825   1.886   7.199   1.467  0.0417 -0.1208  0.0693
    2CYS    SC1  826   1.733   7.023   1.277 -0.1166 -0.0304  0.1448
    3TYR     BB  827   2.111   7.389   1.378  0.2253  0.0113 -0.0911
    3TYR    SC1  828   2.337   7.271   1.544  0.2293  0.2271  0.1484
    3TYR    SC2  829   2.440   7.279   1.793  0.2953  0.3727  0.1180
    3TYR    SC3  830   2.594   7.200   1.586  0.1070 -0.2348  0.1836
    1TYR     BB  831   2.223   0.573   2.919 -0.1467 -0.0622  0.2552
    1TYR    SC1  832   2.139   0.884   2.826 -0.2299  0.0636  0.1608
    1TYR    SC2  833   2.256   1.106   2.725 -0.0353 -0.0041  0.2314
    1TYR    SC3  834   2.015   1.123   2.847 -0.0704  0.1494  0.1431
    2CYS     BB  835   2.518   0.438   2.883 -0.2383 -0.3708 -0.1067
    2CYS    SC1  836   2.509   0.230   2.637 -0.4020  0.1154 -0.2977
    3TYR     BB  837   2.893   0.556   2.737 -0.1430  0.2527  0.1088
    3TYR    SC1  838   3.014   0.296   2.759  0.2902  0.1119  0.2095
    3TYR    SC2  839   2.961   0.034   2.798 -0.0664  0.1379 -0.0433
    3TYR    SC3  840   3.217   0.120   2.792  0.0574 -0.2039  0.0315
    1TYR     BB  841   1.201   7.133   2.895 -0.2618  0.0300 -0.3194
    1TYR    SC1  842   1.158   7.164   3.237 -0.1365  0.3131 -0.0381
    1TYR    SC2  843   0.926   7.228   3.358 -0.1647 -0.0565  0.1221
    1TYR    SC3  844   1.148   7.186   3.506 -0.0210  0.1730 -0.0204
    2CYS     BB  845   1.354   7.436   2.625  0.3383 -0.1188 -0.0461
    2CYS    SC1  846   1.184   7.543   2.420  0.2280  0.0965 -0.1576
    3TYR     BB  847   1.706   7.347   2.493  0.0356 -0.2576 -0.1762
    3TYR    SC1  848   1.613   7.167   2.251  0.1265 -0.2249  0.0827
    3TYR    SC2  849   1.611   6.911   2.165  0.1281 -0.1678 -0.0928
    3TYR    SC3  850   1.467   7.098   2.035 -0.0658 -0.1221  0.1771
    1TYR     BB  851   2.752   0.578   3.397 -0.1174  0.1156 -0.0204
    1TYR    SC1  852   2.587   0.535   3.671  0.1945 -0.3893 -0.0011
    1TYR    SC2  853   2.500   0.406   3.891  0.0679 -0.0747  0.1404
    1TYR    SC3  854   2.557   0.670   3.903 -0.0485 -0.0265 -0.2309
    2CYS     BB  855   3.055   0.522   3.497  0.0683  0.0822  0.0188
    2CYS    SC1  856   3.231   0.314   3.394 -0.0264  0.3902  0.0105
    3TYR     BB  857   3.115   0.552   3.826 -0.3991 -0.0250 -0.2306
    3TYR    SC1  858   3.068   0.837   3.910  0.0544  0.0868 -0.0170
    3TYR    SC2  859   2.897   0.945   4.089  0.2939 -0.0247  0.2930
    3TYR    SC3  860   3.094   1.096   3.983  0.0272  0.0989 -0.0504
    1TYR     BB  861   4.790   6.772   3.936  0.2790 -0.0381 -0.2619
    1TYR    SC1  862   4.926   6.783   3.644  0.0380 -0.0370  0.1423
    1TYR    SC2  863   4.834   6.649   3.429  0.0071  0.2655 -0.0401
    1TYR    SC3  864   5.047   6.813   3.405 -0.0932  0.4249  0.1207
    2CYS     BB  865   4.985   6.729   4.123  0.0391 -0.0426 -0.0783
    2CYS    SC1  866   4.986   6.546   4.354 -0.0688  0.3193 -0.3139
    3TYR     BB  867   5.138   7.038   4.138  0.0590 -0.0240 -0.0197
    3TYR    SC1  868   5.135   7.219   4.331  0.2371 -0.0706 -0.1003
    3TYR    SC2  869   5.291   7.368   4.494  0.0098 -0.2087  0.2567
    3TYR    SC3  870   5.050   7.280   4.580 -0.1786 -0.1802 -0.2058
    1TYR     BB  871   1.436   0.832   1.801 -0.0281 -0.2730  0.2017
    1TYR    SC1  872   1.656   0.747   1.589 -0.1563 -0.0418 -0.1635
    1TYR    SC2  873   1.813   0.544   1.506 -0.1783 -0.0246 -0.2485
    1TYR    SC3  874   1.888   0.799   1.461 -0.0903 -0.0101 -0.0326
    2CYS     BB  875   1.304   1.079   1.985 -0.3514 -0.0525 -0.3139
    2CYS    SC1  876   1.392   1.205   2.213 -0.2779 -0.0719  0.0851
    3TYR     BB  877   0.983   1.176   1.834 -0.2636  0.3190  0.1622
    3TYR    SC1  878   0.971   1.454   1.959 -0.1336  0.0891 -0.3569
    3TYR    SC2  879   0.894   1.688   2.070 -0.1362 -0.1410  0.1601
    3TYR    SC3  880   1.156   1.639   2.027 -0.1563  0.0937 -0.3071
    1TYR     BB  881   4.535   5.532   4.771  0.2121 -0.2082 -0.4601
    1TYR    SC1  882   4.481   5.829   4.843  0.1582 -0.0960  0.1062
    1TYR    SC2  883   4.567   6.059   4.955 -0.1008 -0.2349  0.6332
    1TYR    SC3  884   4.341   6.057   4.808  0.4714  0.0417 -0.3748
    2CYS     BB  885   4.356   5.288   4.934 -0.1818 -0.1597 -0.1451
    2CYS    SC1  886   4.100   5.431   4.952 -0.1695  0.2875 -0.3306
    3TYR     BB  887   4.382   4.999   5.093 -0.1890  0.1263 -0.0360
    3TYR    SC1  888   4.394   5.036   5.390 -0.2833  0.1931  0.2043
    3TYR    SC2  889   4.421   4.921   5.632 -0.0470 -0.3369 -0.0536
    3TYR    SC3  890   4.584   5.123   5.560 -0.0285 -0.2671  0.1743
    1TYR     BB  891   3.555   6.902   4.972 -0.0561  0.0413 -0.2228
    1TYR    SC1  892   3.730   7.115   5.182 -0.1590 -0.0915  0.4774
    1TYR    SC2  893   3.925   7.165   5.361  0.1138  0.1953  0.1193
    1TYR    SC3  894   3.703   7.318   5.358  0.0330  0.0856  0.3100
    2CYS     BB  895   3.778   6.631   4.772  0.2111 -0.0660 -0.0866
    2CYS    SC1  896   3.996   6.428   4.934 -0.0273 -0.0159 -0.0148
    3TYR     BB  897   3.808   6.688   4.425  0.1256  0.0870  0.1348
    3TYR    SC1  898   3.880   6.971   4.349 -0.0292 -0.1054 -0.1514
    3TYR    SC2  899   4.122   7.091   4.362  0.1495 -0.4694  0.0831
    3TYR    SC3  900   3.960   7.136   4.151  0.3200 -0.0422  0.0314
    1TYR     BB  901   1.773   2.499   2.184 -0.0139  0.0489  0.0195
    1TYR    SC1  902   1.583   2.521   1.949 -0.3979  0.0113  0.2099
    1TYR    SC2  903   1.440   2.727   1.849 -0.1430  0.0693 -0.0546
    1TYR    SC3  904   1.428   2.485   1.731 -0.0444  0.0679 -0.0622
    2CYS     BB  905   1.816   2.154   2.258  0.1450  0.1760  0.1422
    2CYS    SC1  906   1.574   2.053   2.393 -0.3139 -0.1748 -0.2173
    3TYR     BB  907   2.073   2.003   2.381 -0.1030  0.1182  0.3072
    3TYR    SC1  908   2.051   2.048   2.692 -0.2266 -0.2642  0.0307
    3TYR    SC2  909   2.268   2.061   2.851  0.0184  0.0746 -0.3078
    3TYR    SC3  910   2.021   2.052   2.960  0.1879 -0.1943  0.0834
    1TYR     BB  911   2.184   5.754   2.070  0.5775 -0.1217  0.1080
    1TYR    SC1  912   1.937   5.737   1.923 -0.2765  0.2435  0.3221
    1TYR    SC2  913   1.681   5.681   1.855 -0.1181 -0.0054 -0.1224
    1TYR    SC3  914   1.827   5.851   1.704  0.0276  0.0184  0.0401
    2CYS     BB  915   2.053   5.647   2.384  0.2078  0.0776 -0.1868
    2CYS    SC1  916   1.838   5.441   2.277 -0.0793  0.0421  0.1372
    3TYR     BB  917   2.157   5.651   2.656  0.0380  0.1225 -0.1187
    3TYR    SC1  918   2.099   5.787   2.924 -0.1510 -0.1616 -0.0285
    3TYR    SC2  919   2.090   6.031   3.039  0.2008 -0.3081  0.3444
    3TYR    SC3  920   1.879   5.864   3.060 -0.0854 -0.0127 -0.0044
    1TYR     BB  921   2.040   1.659   1.509  0.0922  0.0952 -0.1356
    1TYR    SC1  922   2.122   1.879   1.318 -0.2468 -0.0913 -0.2532
    1TYR    SC2  923   2.232   1.942   1.079 -0.2068 -0.1744 -0.2571
    1TYR    SC3  924   2.351   2.022   1.308 -0.4650  0.2753 -0.2638
    2CYS     BB  925   2.328   1.447   1.542  0.2280  0.0281  0.0581
    2CYS    SC1  926   2.235   1.183   1.609 -0.3721 -0.0356  0.2069
    3TYR     BB  927   2.592   1.453   1.292  0.1502 -0.1330 -0.0958
    3TYR    SC1  928   2.709   1.130   1.377  0.0528  0.0225  0.1900
    3TYR    SC2  929   2.713   0.860   1.389  0.4684 -0.0139 -0.3115
    3TYR    SC3  930   2.908   1.003   1.509  0.2062  0.0815  0.0212
    1TYR     BB  931   1.695   0.706   2.817  0.0508 -0.0074  0.1827
    1TYR    SC1  932   1.608   0.986   2.776 -0.1801  0.0588  0.4102
    1TYR    SC2  933   1.410   1.147   2.687  0.1776  0.4764  0.3280
    1TYR    SC3  934   1.580   1.235   2.877  0.3335  0.1568  0.3449
    2CYS     BB  935   1.805   0.715   3.124 -0.1018 -0.1346  0.1980
    2CYS    SC1  936   1.776   0.445   3.235  0.0484  0.2082 -0.2139
    3TYR     BB  937   1.783   0.999   3.324 -0.0261  0.2955 -0.1156
    3TYR    SC1  938   1.705   0.960   3.629  0.0814 -0.1595 -0.1283
    3TYR    SC2  939   1.620   0.771   3.802  0.0395 -0.0935 -0.0763
    3TYR    SC3  940   1.530   1.025   3.823  0.4795  0.0545  0.1775
    1TYR     BB  941   2.306   0.827   3.334 -0.1115 -0.0616 -0.2614
    1TYR    SC1  942   2.164   0.718   3.558 -0.2856  0.2079 -0.2964
    1TYR    SC2  943   2.103   0.761   3.818 -0.1500  0.2844 -0.2758
    1TYR    SC3  944   2.025   0.533   3.697  0.4483 -0.1303  0.0566
    2CYS     BB  945   2.279   1.206   3.417 -0.3243 -0.1930 -0.1954
    2CYS    SC1  946   2.092   1.255   3.655 -0.0333  0.2788 -0.0116
    3TYR     BB  947   2.445   1.332   3.299  0.0103  0.1764 -0.0900
    3TYR    SC1  948   2.714   1.479   3.252 -0.1265 -0.0246  0.1361
    3TYR    SC2  949   2.868   1.665   3.131 -0.1325 -0.0619  0.0701
    3TYR    SC3  950   2.958   1.537   3.351 -0.1524  0.0604  0.1505
    1TYR     BB  951   3.577   5.264   5.595 -0.1243  0.0674  0.0286
    1TYR    SC1  952   3.564   4.974   5.736 -0.3353 -0.2225  0.3328
    1TYR    SC2  953   3.537   4.733   5.618 -0.1102 -0.1111  0.0358
    1TYR    SC3  954   3.502   4.757   5.884 -0.1182 -0.4723  0.0742
    2CYS     BB  955   3.940   5.220   5.515 -0.2763  0.2896  0.1519
    2CYS    SC1  956   3.896   5.099   5.243  0.2450 -0.0500  0.1492
    3TYR     BB  957   4.096   5.311   5.791  0.0737  0.1296 -0.0070
    3TYR    SC1  958   3.897   5.443   6.024 -0.1733 -0.0055 -0.1300
    3TYR    SC2  959   3.643   5.511   6.083  0.0229  0.5667  0.1449
    3TYR    SC3  960   3.813   5.442   6.280  0.0023 -0.2120 -0.0690
    1TYR     BB  961   4.438   6.624   4.278  0.1991  0.1525  0.3308
    1TYR    SC1  962   4.234   6.718   4.113  0.0228  0.1107 -0.2240
    1TYR    SC2  963   4.041   6.698   3.925 -0.0373 -0.0973 -0.1436
    1TYR    SC3  964   4.224   6.895   3.909 -0.0637 -0.0892 -0.3990
    2CYS     BB  965   4.296   6.709   4.601 -0.3217 -0.0068 -0.0229
    2CYS    SC1  966   4.455   6.528   4.770 -0.1516  0.0799  0.3924
    3TYR     BB  967   4.153   6.912   4.913 -0.1702  0.0817 -0.1034
    3TYR    SC1  968   4.001   7.177   4.833  0.3088  0.0806 -0.2578
    3TYR    SC2  969   3.956   7.442   4.816 -0.0467  0.0553  0.1113
    3TYR    SC3  970   3.817   7.272   4.659 -0.3138  0.0574  0.3345
    1TYR     BB  971   1.989   6.665   2.281 -0.2899  0.3147 -0.0952
    1TYR    SC1  972   1.749   6.504   2.374  0.1248 -0.1359  0.4503
    1TYR    SC2  973   1.559   6.366   2.506 -0.0553 -0.2921  0.0488
    1TYR    SC3  974   1.494   6.509   2.286  0.2314 -0.0299  0.1259
    2CYS     BB  975   2.280   6.557   2.322  0.0616 -0.0005 -0.1015
    2CYS    SC1  976   2.396   6.745   2.505 -0.1174 -0.1506  0.0285
    3TYR     BB  977   2.383   6.309   2.136  0.0735 -0.4832 -0.3358
    3TYR    SC1  978   2.137   6.261   1.970  0.4149 -0.2303  0.1195
    3TYR    SC2  979   1.979   6.284   1.752  0.5036  0.4997  0.1018
    3TYR    SC3  980   1.879   6.184   1.982  0.2196  0.3341 -0.0862
    1TYR     BB  981   6.281   4.580   5.703  0.2827  0.3486 -0.0167
    1TYR    SC1  982   6.183   4.497   6.013 -0.1068 -0.1007 -0.1523
    1TYR    SC2  983   6.155   4.332   6.224  0.0303  0.0945  0.0243
    1TYR    SC3  984   5.938   4.408   6.082 -0.0946  0.1320  0.2293
    2CYS     BB  985   6.306   4.928   5.638 -0.0616  0.0753 -0.0052
    2CYS    SC1  986   6.200   5.009   5.395  0.0302  0.0766  0.0490
    3TYR     BB  987   6.377   5.131   5.885  0.2303 -0.0057 -0.2493
    3TYR    SC1  988   6.290   4.948   6.125  0.0763  0.1068 -0.1920
    3TYR    SC2  989   6.413   4.832   6.335 -0.0983 -0.1822 -0.2415
    3TYR    SC3  990   6.146   4.866   6.338 -0.0829 -0.0406 -0.3522
    1TYR     BB  991   4.386   4.140   4.497 -0.0333 -0.1569  0.2295
    1TYR    SC1  992   4.619   4.301   4.426 -0.0292 -0.4094 -0.0784
    1TYR    SC2  993   4.768   4.409   4.228 -0.0770 -0.3722 -0.0944
    1TYR    SC3  994   4.848   4.431   4.485 -0.1919 -0.1124 -0.0777
    2CYS     BB  995   4.336   4.049   4.136 -0.0202 -0.0133 -0.2380
    2CYS    SC1  996   4.370   4.338   3.978  0.1075 -0.0928 -0.1323
    3TYR     BB  997   4.585   3.882   4.033  0.0974  0.0847 -0.1244
    3TYR    SC1  998   4.810   3.956   4.151  0.0514  0.1065  0.0158
    3TYR    SC2  999   5.067   4.014   4.210  0.0051  0.1317  0.1991
    3TYR    SC3 1000   4.901   3.923   4.403 -0.0505 -0.1573  0.0228
   7.66745   7.66745   7.66745
