Generated by trjconv : Martini system from ../2_Creating_coordinates/TYR-GLU-TYR_aa.pdb t=   0.00000
 1000
    1TYR     BB    1   5.997   5.522   4.620 -0.0538  0.0579  0.2230
    1TYR    SC1    2   5.998   5.243   4.536  0.0028 -0.2237 -0.3064
    1TYR    SC2    3   5.947   4.979   4.552 -0.1037 -0.1877  0.0952
    1TYR    SC3    4   6.143   5.069   4.389  0.0039 -0.5208  0.0294
    2GLU     BB    5   6.087   5.707   4.777  0.0246  0.0005 -0.0138
    2GLU    SC1    6   6.488   5.651   4.837 -0.0625 -0.0766  0.2977
    3TYR     BB    7   6.095   6.031   4.712  0.1260  0.1265  0.1067
    3TYR    SC1    8   6.336   6.054   4.541 -0.1989 -0.0553 -0.4357
    3TYR    SC2    9   6.540   5.928   4.417  0.1771  0.0117  0.0722
    3TYR    SC3   10   6.513   6.196   4.396  0.0294 -0.0158 -0.1310
    1TYR     BB   11   2.721   4.563   3.832  0.1837 -0.0498 -0.1959
    1TYR    SC1   12   2.755   4.822   4.040 -0.3106 -0.1316 -0.0221
    1TYR    SC2   13   2.548   4.979   4.113 -0.2253 -0.2081  0.4172
    1TYR    SC3   14   2.791   5.014   4.226  0.0902  0.0538 -0.2729
    2GLU     BB   15   3.006   4.488   3.684  0.1680 -0.1798 -0.2338
    2GLU    SC1   16   3.028   4.722   3.413  0.2648 -0.1143  0.1132
    3TYR     BB   17   3.294   4.305   3.633  0.3743 -0.1794  0.2160
    3TYR    SC1   18   3.301   4.313   3.360  0.1325 -0.0431  0.0763
    3TYR    SC2   19   3.299   4.214   3.109 -0.1548 -0.0106  0.0617
    3TYR    SC3   20   3.359   4.473   3.151 -0.1252 -0.0114  0.0253
    1TYR     BB   21   3.417   6.229   3.133 -0.3858 -0.1070 -0.1921
    1TYR    SC1   22   3.598   6.288   3.362  0.4050  0.2519 -0.2492
    1TYR    SC2   23   3.819   6.414   3.452  0.3030  0.2884 -0.0424
    1TYR    SC3   24   3.673   6.261   3.620  0.1627  0.2766 -0.1727
    2GLU     BB   25   3.085   6.195   3.134  0.1094 -0.1676 -0.1729
    2GLU    SC1   26   3.078   6.146   2.730  0.0942 -0.0791 -0.1248
    3TYR     BB   27   2.877   6.280   3.310  0.0809 -0.0511  0.1241
    3TYR    SC1   28   2.652   6.127   3.429 -0.0893  0.1327 -0.0377
    3TYR    SC2   29   2.615   5.878   3.526 -0.3516  0.1153 -0.1709
    3TYR    SC3   30   2.403   6.042   3.491 -0.1774  0.3767 -0.0428
    1TYR     BB   31   3.285   6.649   2.764 -0.0183  0.0847 -0.1976
    1TYR    SC1   32   2.980   6.605   2.830  0.1161  0.1756  0.0707
    1TYR    SC2   33   2.736   6.538   2.738  0.1376  0.3454 -0.1163
    1TYR    SC3   34   2.770   6.596   2.999  0.0894 -0.2115  0.0287
    2GLU     BB   35   3.352   6.912   2.720 -0.1347  0.2455 -0.3105
    2GLU    SC1   36   3.309   6.974   2.293 -0.3121 -0.0221 -0.3496
    3TYR     BB   37   3.563   7.163   2.812 -0.1639  0.0066 -0.0182
    3TYR    SC1   38   3.638   7.347   2.590  0.0522 -0.2757 -0.1087
    3TYR    SC2   39   3.799   7.346   2.374  0.1017  0.0534 -0.0795
    3TYR    SC3   40   3.556   7.463   2.360 -0.0527 -0.2540 -0.0611
    1TYR     BB   41   1.528   0.621   3.373  0.0972  0.2332 -0.2027
    1TYR    SC1   42   1.550   0.712   3.108 -0.0088 -0.3232 -0.0580
    1TYR    SC2   43   1.767   0.702   2.949  0.0348 -0.5589  0.0117
    1TYR    SC3   44   1.583   0.897   2.914  0.2795 -0.3256 -0.0157
    2GLU     BB   45   1.359   0.295   3.393  0.3013  0.0819 -0.0501
    2GLU    SC1   46   1.232   0.198   3.758 -0.0218  0.1402  0.1366
    3TYR     BB   47   1.022   0.341   3.323  0.2629  0.3467  0.0455
    3TYR    SC1   48   0.999   0.186   3.052 -0.0972 -0.1275  0.1070
    3TYR    SC2   49   0.980  -0.066   2.958  0.0594 -0.1370  0.0974
    3TYR    SC3   50   0.996   0.141   2.786 -0.2461 -0.1029  0.1035
    1TYR     BB   51   1.285  -0.201   2.039 -0.1708 -0.1935  0.1209
    1TYR    SC1   52   1.125   0.053   2.144 -0.0358 -0.0598  0.3439
    1TYR    SC2   53   0.933   0.203   2.029 -0.0156 -0.1255  0.2227
    1TYR    SC3   54   1.024   0.266   2.275 -0.3515 -0.2243  0.3792
    2GLU     BB   55   1.602  -0.222   2.070 -0.1171  0.2241 -0.0601
    2GLU    SC1   56   1.807  -0.575   2.012  0.0610  0.3564 -0.1662
    3TYR     BB   57   1.863  -0.040   2.097  0.0816  0.0103 -0.2356
    3TYR    SC1   58   1.934   0.050   1.789  0.1220  0.0867 -0.0911
    3TYR    SC2   59   2.095   0.131   1.588  0.1615 -0.3211 -0.2358
    3TYR    SC3   60   1.872  -0.010   1.533 -0.1355  0.0428 -0.0210
    1TYR     BB   61   2.991   5.666   3.760 -0.1710  0.3761 -0.1045
    1TYR    SC1   62   3.251   5.508   3.814 -0.0806 -0.2240  0.2582
    1TYR    SC2   63   3.455   5.468   3.986 -0.0132 -0.0720  0.2152
    1TYR    SC3   64   3.490   5.418   3.722  0.0059  0.0609  0.1916
    2GLU     BB   65   3.116   5.823   3.466  0.1035  0.2357 -0.1485
    2GLU    SC1   66   2.903   5.727   3.155  0.1323  0.1796  0.1780
    3TYR     BB   67   3.347   5.884   3.481 -0.0835  0.1137 -0.2286
    3TYR    SC1   68   3.601   5.779   3.387 -0.3494 -0.2419 -0.0852
    3TYR    SC2   69   3.752   5.560   3.341 -0.1520 -0.0342 -0.4947
    3TYR    SC3   70   3.792   5.784   3.196 -0.3625  0.2729 -0.1015
    1TYR     BB   71   2.630   0.221   4.806  0.2053 -0.1321  0.0196
    1TYR    SC1   72   2.793   0.351   4.602 -0.2249 -0.1027  0.0252
    1TYR    SC2   73   2.872   0.344   4.344 -0.0607  0.2422  0.0598
    1TYR    SC3   74   3.036   0.445   4.533 -0.1910  0.0219  0.2985
    2GLU     BB   75   2.629  -0.168   4.718 -0.1638  0.1955 -0.1321
    2GLU    SC1   76   2.253  -0.231   4.749 -0.1573  0.1197 -0.0195
    3TYR     BB   77   2.836  -0.166   4.569 -0.0867 -0.0475  0.0012
    3TYR    SC1   78   3.099  -0.060   4.481 -0.0882  0.1455  0.1188
    3TYR    SC2   79   3.201   0.095   4.284 -0.1855  0.0601 -0.0005
    3TYR    SC3   80   3.352   0.035   4.500  0.0458 -0.1185 -0.2046
    1TYR     BB   81   2.885   3.954   4.012  0.1373  0.0311  0.1992
    1TYR    SC1   82   3.135   3.904   4.150 -0.2557 -0.0478 -0.0471
    1TYR    SC2   83   3.308   3.887   4.355 -0.1059 -0.1065 -0.1766
    1TYR    SC3   84   3.311   3.700   4.161 -0.3721 -0.1562 -0.1374
    2GLU     BB   85   2.776   4.073   3.789  0.2912 -0.1970  0.4890
    2GLU    SC1   86   2.420   4.056   3.544  0.2854  0.0640 -0.0391
    3TYR     BB   87   2.908   4.054   3.464  0.1968  0.4129  0.1425
    3TYR    SC1   88   2.872   3.910   3.214 -0.2724  0.1264 -0.0343
    3TYR    SC2   89   2.902   3.756   2.994 -0.2572  0.3475 -0.1915
    3TYR    SC3   90   2.671   3.749   3.133 -0.2058  0.0808 -0.1117
    1TYR     BB   91   4.346   6.346   4.402 -0.1875  0.1655 -0.0313
    1TYR    SC1   92   4.090   6.471   4.489  0.0959  0.0872  0.1125
    1TYR    SC2   93   3.947   6.551   4.704 -0.1537 -0.1146  0.0283
    1TYR    SC3   94   3.884   6.643   4.458 -0.0898 -0.1486 -0.0011
    2GLU     BB   95   4.238   6.202   4.123 -0.2012 -0.1164  0.0094
    2GLU    SC1   96   4.235   5.887   4.203 -0.1759  0.1325 -0.0056
    3TYR     BB   97   4.183   6.301   3.797  0.0826 -0.2383  0.2382
    3TYR    SC1   98   4.492   6.395   3.677 -0.2844 -0.2021 -0.0812
    3TYR    SC2   99   4.722   6.293   3.578  0.0450  0.0762  0.3507
    3TYR    SC3  100   4.678   6.559   3.569 -0.2456  0.0309  0.3169
    1TYR     BB  101   6.272   6.905   3.351  0.2956 -0.3062  0.2315
    1TYR    SC1  102   6.554   6.790   3.456  0.0333  0.0731 -0.1423
    1TYR    SC2  103   6.758   6.618   3.413 -0.1191 -0.1343 -0.0577
    1TYR    SC3  104   6.672   6.667   3.665  0.0117  0.1772 -0.0677
    2GLU     BB  105   5.944   6.801   3.422  0.1057 -0.1248  0.0735
    2GLU    SC1  106   5.892   6.743   3.004 -0.2349 -0.0039 -0.0710
    3TYR     BB  107   5.792   6.638   3.472  0.1044  0.2080 -0.0360
    3TYR    SC1  108   5.635   6.670   3.753 -0.3025 -0.4447 -0.0119
    3TYR    SC2  109   5.628   6.501   3.963 -0.0952  0.0707  0.4398
    3TYR    SC3  110   5.665   6.765   4.003 -0.0586  0.1962 -0.2582
    1TYR     BB  111   5.214   5.760   4.321  0.1838  0.2204  0.0895
    1TYR    SC1  112   5.229   5.429   4.362  0.1030  0.1291 -0.1116
    1TYR    SC2  113   5.169   5.214   4.513  0.0495  0.4013  0.2727
    1TYR    SC3  114   5.060   5.241   4.268 -0.4434  0.2889  0.4654
    2GLU     BB  115   4.952   5.814   4.291 -0.0187 -0.3776 -0.0712
    2GLU    SC1  116   4.684   5.520   4.379 -0.2275 -0.1279  0.0818
    3TYR     BB  117   4.741   6.116   4.231 -0.4616  0.2097  0.0158
    3TYR    SC1  118   4.938   6.292   4.093 -0.0620  0.0898  0.1522
    3TYR    SC2  119   5.199   6.335   4.038 -0.0080 -0.0824  0.2630
    3TYR    SC3  120   5.009   6.473   3.905  0.1380  0.0364  0.1726
    1TYR     BB  121   1.383   0.195   1.742 -0.2079  0.1843 -0.1970
    1TYR    SC1  122   1.538   0.300   1.976 -0.2652  0.2003 -0.0186
    1TYR    SC2  123   1.527   0.295   2.246 -0.0840  0.1668 -0.0107
    1TYR    SC3  124   1.725   0.430   2.120 -0.0278 -0.0143 -0.1222
    2GLU     BB  125   1.145   0.352   1.610 -0.0511 -0.0911  0.2923
    2GLU    SC1  126   0.981   0.208   1.279 -0.3826 -0.4405  0.1698
    3TYR     BB  127   1.028   0.561   1.659 -0.1219 -0.0103 -0.5485
    3TYR    SC1  128   0.915   0.806   1.545  0.2840  0.0201  0.0000
    3TYR    SC2  129   0.822   0.971   1.352 -0.1258 -0.1207  0.0646
    3TYR    SC3  130   0.903   1.073   1.588 -0.0116  0.0164 -0.0315
    1TYR     BB  131   3.835   7.786   4.671  0.0106 -0.0190  0.0616
    1TYR    SC1  132   4.116   7.867   4.617 -0.1832  0.0511  0.2970
    1TYR    SC2  133   4.336   7.775   4.744 -0.1771 -0.3804  0.0026
    1TYR    SC3  134   4.361   7.907   4.510 -0.2259 -0.2854  0.0504
    2GLU     BB  135   3.713   7.957   4.820  0.1873 -0.0602  0.1947
    2GLU    SC1  136   3.903   8.304   4.703  0.1384 -0.0701 -0.0689
    3TYR     BB  137   3.431   8.050   4.886  0.0321 -0.0913 -0.3671
    3TYR    SC1  138   3.419   7.950   5.186  0.0263  0.1827 -0.1373
    3TYR    SC2  139   3.452   7.995   5.450  0.1479 -0.1859 -0.0839
    3TYR    SC3  140   3.366   7.754   5.363 -0.3613  0.0729 -0.3583
    1TYR     BB  141   2.508   3.233   3.332 -0.0001  0.0195  0.1773
    1TYR    SC1  142   2.773   3.264   3.191 -0.0517 -0.0559  0.1599
    1TYR    SC2  143   2.998   3.331   3.057 -0.2156  0.0907 -0.0518
    1TYR    SC3  144   2.847   3.125   2.972 -0.1525 -0.0227  0.1041
    2GLU     BB  145   2.282   3.431   3.361 -0.0950  0.1237  0.0665
    2GLU    SC1  146   2.202   3.619   2.969 -0.2887 -0.0125 -0.1245
    3TYR     BB  147   2.389   3.628   3.710 -0.0058 -0.1452  0.0054
    3TYR    SC1  148   2.675   3.604   3.666 -0.0707  0.0695  0.0803
    3TYR    SC2  149   2.918   3.530   3.760 -0.2119 -0.3495  0.1436
    3TYR    SC3  150   2.877   3.556   3.494 -0.1513 -0.4940  0.1197
    1TYR     BB  151   2.837   2.133   2.789 -0.1284 -0.1349 -0.1165
    1TYR    SC1  152   2.616   2.260   2.637  0.1855  0.1693 -0.0780
    1TYR    SC2  153   2.490   2.449   2.493  0.1105  0.1482 -0.0401
    1TYR    SC3  154   2.416   2.190   2.470  0.1248  0.1400  0.0062
    2GLU     BB  155   3.090   1.959   2.717 -0.1739 -0.0322 -0.0582
    2GLU    SC1  156   3.076   2.044   2.327  0.1147 -0.0892  0.3040
    3TYR     BB  157   3.260   1.862   2.892 -0.1876 -0.0587  0.0218
    3TYR    SC1  158   3.486   1.662   2.883 -0.0070 -0.3184 -0.0315
    3TYR    SC2  159   3.719   1.631   2.750 -0.0445  0.0788 -0.2064
    3TYR    SC3  160   3.599   1.417   2.861  0.5223 -0.1065  0.1036
    1TYR     BB  161   1.752   2.056   3.211  0.1413  0.3297 -0.2135
    1TYR    SC1  162   1.682   2.356   3.230 -0.1981  0.0076 -0.1118
    1TYR    SC2  163   1.747   2.586   3.104 -0.1368 -0.1087 -0.2972
    1TYR    SC3  164   1.515   2.568   3.241  0.1200  0.2586  0.2288
    2GLU     BB  165   1.835   1.886   3.368 -0.0447  0.0092  0.0860
    2GLU    SC1  166   1.532   1.650   3.416  0.1151  0.1786 -0.3339
    3TYR     BB  167   2.076   1.786   3.426 -0.1497 -0.5872 -0.0386
    3TYR    SC1  168   2.197   1.828   3.702  0.0077  0.1014  0.2032
    3TYR    SC2  169   2.304   1.675   3.898 -0.0428 -0.1071  0.0725
    3TYR    SC3  170   2.303   1.944   3.922  0.3832 -0.1028  0.1425
    1TYR     BB  171   7.449   7.259   3.578  0.1617  0.2171 -0.0029
    1TYR    SC1  172   7.408   7.339   3.875  0.2560 -0.3139  0.1229
    1TYR    SC2  173   7.483   7.381   4.131  0.0710 -0.1644  0.1557
    1TYR    SC3  174   7.265   7.505   4.032  0.0923 -0.2853 -0.0517
    2GLU     BB  175   7.715   7.190   3.468 -0.1267  0.1218 -0.2137
    2GLU    SC1  176   7.663   6.792   3.446 -0.2224  0.1648 -0.1615
    3TYR     BB  177   8.055   7.373   3.623  0.2910  0.2875 -0.2168
    3TYR    SC1  178   7.877   7.627   3.653  0.1765  0.0792 -0.0968
    3TYR    SC2  179   7.876   7.897   3.655  0.1641  0.0833 -0.3262
    3TYR    SC3  180   7.648   7.761   3.703  0.2123  0.1065 -0.0024
    1TYR     BB  181   1.115   1.791   4.338 -0.1360 -0.3322  0.1874
    1TYR    SC1  182   1.160   2.047   4.182  0.0963 -0.2662 -0.3427
    1TYR    SC2  183   1.148   2.208   3.966 -0.2191  0.0759 -0.0846
    1TYR    SC3  184   1.376   2.191   4.108 -0.0281 -0.1058 -0.4012
    2GLU     BB  185   1.234   1.547   4.332  0.0251 -0.0822 -0.0515
    2GLU    SC1  186   1.129   1.355   4.595  0.4037  0.0522 -0.0294
    3TYR     BB  187   1.468   1.404   4.231  0.1463  0.1188 -0.2809
    3TYR    SC1  188   1.589   1.561   4.040  0.0869  0.2914  0.2616
    3TYR    SC2  189   1.526   1.809   3.956  0.3301  0.2348 -0.1191
    3TYR    SC3  190   1.764   1.700   3.890  0.3089 -0.0308  0.2075
    1TYR     BB  191   4.274   6.495   3.225 -0.2362  0.0390  0.0925
    1TYR    SC1  192   4.176   6.675   3.458 -0.1916  0.0980  0.2123
    1TYR    SC2  193   4.047   6.839   3.630  0.0448  0.2386  0.2608
    1TYR    SC3  194   4.313   6.797   3.656 -0.0095 -0.1613  0.2526
    2GLU     BB  195   4.202   6.465   2.981  0.2790 -0.0677  0.2063
    2GLU    SC1  196   3.994   6.158   2.987  0.0474 -0.2126  0.1257
    3TYR     BB  197   4.313   6.483   2.653 -0.0074 -0.1252 -0.1145
    3TYR    SC1  198   4.033   6.641   2.557  0.2559  0.0334 -0.0397
    3TYR    SC2  199   3.797   6.624   2.688  0.1934 -0.6795 -0.1914
    3TYR    SC3  200   3.831   6.810   2.495  0.0346 -0.0899  0.3071
    1TYR     BB  201   5.349   6.147   5.048  0.1944 -0.4845  0.0413
    1TYR    SC1  202   5.302   6.332   5.304 -0.3664 -0.0582 -0.1154
    1TYR    SC2  203   5.315   6.444   5.549 -0.3751 -0.2389 -0.0302
    1TYR    SC3  204   5.089   6.466   5.403 -0.2678  0.1309 -0.1546
    2GLU     BB  205   5.197   6.142   4.870 -0.3870 -0.2243 -0.0700
    2GLU    SC1  206   4.829   6.224   4.942 -0.0675  0.1255  0.0647
    3TYR     BB  207   5.189   6.203   4.568 -0.0542 -0.2936 -0.0115
    3TYR    SC1  208   5.038   6.430   4.530  0.0566  0.0695  0.0450
    3TYR    SC2  209   5.002   6.695   4.489  0.1470  0.0763  0.0059
    3TYR    SC3  210   4.788   6.532   4.521  0.0919  0.1583  0.0586
    1TYR     BB  211   3.499   4.321   4.529  0.2070 -0.1497 -0.0873
    1TYR    SC1  212   3.638   4.477   4.320 -0.0214 -0.1297  0.0431
    1TYR    SC2  213   3.677   4.648   4.114 -0.0763 -0.2547 -0.0729
    1TYR    SC3  214   3.868   4.469   4.179  0.0088 -0.1090  0.0906
    2GLU     BB  215   3.241   4.364   4.738  0.3139 -0.0925  0.3505
    2GLU    SC1  216   3.436   4.428   5.026 -0.1036  0.0883 -0.2631
    3TYR     BB  217   2.957   4.281   4.741  0.0416  0.1397 -0.0004
    3TYR    SC1  218   2.685   4.217   4.862  0.1090 -0.1808 -0.0904
    3TYR    SC2  219   2.460   4.071   4.839 -0.1084  0.1133  0.0750
    3TYR    SC3  220   2.494   4.233   5.052  0.2319  0.1291  0.0154
    1TYR     BB  221   3.116   2.770   3.225 -0.0563  0.0159 -0.2296
    1TYR    SC1  222   3.293   2.940   3.014  0.1654 -0.0285  0.0318
    1TYR    SC2  223   3.374   3.158   2.877  0.0992  0.1044  0.1993
    1TYR    SC3  224   3.255   2.953   2.747  0.2572  0.1199  0.0247
    2GLU     BB  225   3.442   2.695   3.438  0.1326 -0.0243  0.0597
    2GLU    SC1  226   3.686   2.759   3.205 -0.1020  0.2046 -0.2756
    3TYR     BB  227   3.452   2.786   3.706  0.0771  0.0259  0.0292
    3TYR    SC1  228   3.188   2.779   3.875  0.1855  0.1626  0.2884
    3TYR    SC2  229   2.933   2.742   3.954  0.0819  0.0337 -0.0854
    3TYR    SC3  230   3.131   2.599   4.067 -0.0290  0.0236  0.1007
    1TYR     BB  231   5.064   6.855   3.543  0.0265  0.1163  0.1044
    1TYR    SC1  232   5.202   6.905   3.809  0.1031  0.0250 -0.1595
    1TYR    SC2  233   5.217   6.827   4.067  0.5265 -0.3212 -0.2742
    1TYR    SC3  234   5.312   7.069   3.994 -0.1717  0.0632 -0.0239
    2GLU     BB  235   4.932   7.084   3.450 -0.0339  0.2072 -0.1505
    2GLU    SC1  236   4.979   7.133   3.110  0.0812  0.3262  0.1484
    3TYR     BB  237   4.632   7.223   3.521 -0.3531 -0.0275 -0.2437
    3TYR    SC1  238   4.521   7.319   3.254  0.0898 -0.0975 -0.0296
    3TYR    SC2  239   4.451   7.553   3.139 -0.1574 -0.1339  0.0391
    3TYR    SC3  240   4.556   7.355   2.989 -0.0315 -0.0130 -0.0353
    1TYR     BB  241   2.533   0.535   3.444  0.0348  0.2429  0.1593
    1TYR    SC1  242   2.786   0.639   3.523 -0.0095  0.1765  0.0174
    1TYR    SC2  243   2.823   0.903   3.562 -0.0734  0.1583  0.2132
    1TYR    SC3  244   2.981   0.725   3.689 -0.0209  0.1016  0.0705
    2GLU     BB  245   2.343   0.303   3.616  0.2464 -0.2764  0.1017
    2GLU    SC1  246   2.132   0.539   3.852  0.1176 -0.1604 -0.0277
    3TYR     BB  247   2.426   0.136   3.773 -0.0584 -0.4351  0.0556
    3TYR    SC1  248   2.454   0.202   4.091 -0.0360  0.0762 -0.0869
    3TYR    SC2  249   2.373   0.350   4.302  0.0580 -0.1669  0.1262
    3TYR    SC3  250   2.445   0.092   4.337 -0.1854 -0.2969 -0.2489
    1TYR     BB  251   2.671   2.855   4.318  0.0673 -0.0765 -0.0543
    1TYR    SC1  252   2.541   2.706   4.133  0.0466  0.2439  0.0372
    1TYR    SC2  253   2.523   2.629   3.875 -0.3432 -0.0584  0.1425
    1TYR    SC3  254   2.322   2.573   4.047 -0.0321  0.0120  0.5485
    2GLU     BB  255   2.938   2.851   4.463  0.0373  0.0381  0.1436
    2GLU    SC1  256   2.774   2.810   4.822  0.4235  0.2275 -0.1556
    3TYR     BB  257   3.184   2.935   4.431  0.1343  0.1234 -0.2320
    3TYR    SC1  258   3.362   3.179   4.548  0.0357  0.0549  0.0970
    3TYR    SC2  259   3.439   3.429   4.481 -0.3408  0.1799  0.1035
    3TYR    SC3  260   3.417   3.359   4.741 -0.0057  0.0581  0.1058
    1TYR     BB  261   2.684   0.625   1.681  0.0557 -0.0293 -0.0925
    1TYR    SC1  262   2.422   0.614   1.556  0.0895  0.1089 -0.2031
    1TYR    SC2  263   2.168   0.694   1.597  0.0840  0.0627 -0.1468
    1TYR    SC3  264   2.232   0.564   1.370  0.0356 -0.0172 -0.1156
    2GLU     BB  265   2.915   0.800   1.821 -0.0271  0.0813 -0.0287
    2GLU    SC1  266   3.039   1.131   1.593 -0.1208  0.4557  0.0174
    3TYR     BB  267   3.185   0.758   1.916  0.0844  0.0832  0.0307
    3TYR    SC1  268   3.185   0.842   2.234  0.1019  0.1475 -0.2419
    3TYR    SC2  269   3.331   1.000   2.397  0.1232 -0.1266  0.0155
    3TYR    SC3  270   3.280   0.745   2.467 -0.1020 -0.1707 -0.2844
    1TYR     BB  271   1.390  -0.320   2.996 -0.0653 -0.1564  0.2758
    1TYR    SC1  272   1.415  -0.118   2.762  0.0255 -0.3242 -0.1579
    1TYR    SC2  273   1.327   0.017   2.545 -0.2641 -0.1950  0.0320
    1TYR    SC3  274   1.591  -0.022   2.582 -0.2049 -0.1280 -0.2874
    2GLU     BB  275   1.319  -0.224   3.293 -0.0088  0.0115 -0.0070
    2GLU    SC1  276   1.253  -0.598   3.438 -0.1015  0.0141  0.1446
    3TYR     BB  277   1.010  -0.152   3.429 -0.0468 -0.2801 -0.0460
    3TYR    SC1  278   0.811  -0.367   3.276 -0.0296 -0.1167  0.0963
    3TYR    SC2  279   0.661  -0.588   3.233 -0.3065  0.1119 -0.1771
    3TYR    SC3  280   0.895  -0.555   3.102 -0.1638 -0.1018  0.0134
    1TYR     BB  281   1.683   0.153   3.078  0.0527  0.2207  0.1891
    1TYR    SC1  282   1.464   0.342   2.911 -0.1397  0.1550  0.1345
    1TYR    SC2  283   1.264   0.515   2.858  0.0725  0.3945  0.0893
    1TYR    SC3  284   1.436   0.443   2.663  0.0727  0.2423  0.1436
    2GLU     BB  285   1.925   0.291   3.169  0.3439  0.3477 -0.0104
    2GLU    SC1  286   1.862   0.157   3.516  0.2263  0.3942 -0.1460
    3TYR     BB  287   2.192   0.260   3.106  0.0084 -0.4416  0.1535
    3TYR    SC1  288   2.308  -0.001   3.197 -0.0497 -0.0975  0.0144
    3TYR    SC2  289   2.318  -0.163   3.413  0.3079  0.2051  0.2413
    3TYR    SC3  290   2.487  -0.203   3.205 -0.2203 -0.2588 -0.1365
    1TYR     BB  291   1.335   2.060   1.631 -0.1128  0.3532  0.1206
    1TYR    SC1  292   1.510   2.205   1.416 -0.0045 -0.0619  0.1042
    1TYR    SC2  293   1.712   2.342   1.301  0.2846 -0.3763  0.2179
    1TYR    SC3  294   1.607   2.126   1.176 -0.1953 -0.0492  0.0202
    2GLU     BB  295   1.192   1.840   1.458  0.3325 -0.1114 -0.0674
    2GLU    SC1  296   1.111   2.017   1.120  0.1716  0.2291  0.0890
    3TYR     BB  297   1.122   1.549   1.594  0.2768  0.0028 -0.1259
    3TYR    SC1  298   0.852   1.461   1.749  0.0369  0.0487 -0.0305
    3TYR    SC2  299   0.648   1.563   1.896 -0.0247  0.0493 -0.1152
    3TYR    SC3  300   0.597   1.381   1.703  0.0209  0.2477 -0.3191
    1TYR     BB  301   2.639   2.409   3.191 -0.0488  0.2287  0.1423
    1TYR    SC1  302   2.418   2.219   3.090  0.0893  0.1732  0.0945
    1TYR    SC2  303   2.188   2.219   2.949  0.1655  0.2210 -0.0326
    1TYR    SC3  304   2.321   1.988   2.990  0.0000  0.1623  0.2040
    2GLU     BB  305   2.563   2.699   3.225 -0.1444 -0.1224  0.0572
    2GLU    SC1  306   2.336   2.711   2.881  0.1225 -0.2070 -0.0137
    3TYR     BB  307   2.299   2.803   3.420  0.0285 -0.0169 -0.3411
    3TYR    SC1  308   2.046   2.782   3.568 -0.0157  0.0990 -0.1487
    3TYR    SC2  309   1.932   2.706   3.800  0.0338  0.3081 -0.0537
    3TYR    SC3  310   1.800   2.671   3.568  0.1117 -0.1993 -0.0362
    1TYR     BB  311   6.076   6.902   4.772 -0.0604 -0.1026  0.2959
    1TYR    SC1  312   6.072   6.681   4.580  0.1505  0.1358 -0.1097
    1TYR    SC2  313   6.098   6.431   4.482  0.2431  0.0418  0.1418
    1TYR    SC3  314   5.931   6.606   4.363  0.2263 -0.1169 -0.0769
    2GLU     BB  315   5.873   6.996   4.947  0.0260 -0.0185  0.3081
    2GLU    SC1  316   5.974   7.086   5.281 -0.1123 -0.0808 -0.1166
    3TYR     BB  317   5.539   7.139   4.924 -0.0047 -0.0319  0.0784
    3TYR    SC1  318   5.594   7.394   5.089 -0.0294 -0.1868  0.3196
    3TYR    SC2  319   5.639   7.659   5.115  0.1740 -0.1817 -0.0170
    3TYR    SC3  320   5.652   7.498   5.332  0.1290  0.0690  0.1773
    1TYR     BB  321   3.091   0.302   2.607  0.1076  0.0889  0.2439
    1TYR    SC1  322   3.008   0.021   2.477 -0.1070  0.0128 -0.0584
    1TYR    SC2  323   3.076  -0.228   2.397  0.0596  0.0050  0.0979
    1TYR    SC3  324   2.855  -0.109   2.297  0.1954 -0.0459 -0.2834
    2GLU     BB  325   2.923   0.449   2.723  0.1003  0.2771  0.0384
    2GLU    SC1  326   2.686   0.321   2.992 -0.1100  0.1922 -0.2592
    3TYR     BB  327   2.898   0.739   2.790 -0.3076  0.1424  0.2487
    3TYR    SC1  328   3.165   0.874   2.877  0.0323  0.0656 -0.1199
    3TYR    SC2  329   3.311   1.102   2.867  0.3328 -0.1269 -0.3362
    3TYR    SC3  330   3.278   0.973   3.101  0.0711  0.1850 -0.1905
    1TYR     BB  331   2.470   1.192   2.674  0.3279  0.1100 -0.1516
    1TYR    SC1  332   2.352   0.987   2.900 -0.0041  0.0134 -0.0393
    1TYR    SC2  333   2.176   0.825   3.027  0.0859  0.0841  0.1821
    1TYR    SC3  334   2.421   0.733   2.961 -0.0952 -0.0821 -0.3159
    2GLU     BB  335   2.253   1.263   2.449  0.3791 -0.1248  0.0903
    2GLU    SC1  336   2.444   1.408   2.149 -0.1955 -0.0089  0.0775
    3TYR     BB  337   1.979   1.275   2.554  0.2333  0.0168  0.0444
    3TYR    SC1  338   1.706   1.192   2.433  0.3505 -0.0818 -0.3624
    3TYR    SC2  339   1.442   1.204   2.378  0.2707 -0.0289 -0.0000
    3TYR    SC3  340   1.596   1.017   2.259  0.0665 -0.0810 -0.1919
    1TYR     BB  341   3.411   4.802   3.712 -0.2648 -0.1396 -0.0435
    1TYR    SC1  342   3.573   4.886   3.500  0.1672 -0.0685 -0.0416
    1TYR    SC2  343   3.663   5.134   3.443  0.2773 -0.0580  0.1666
    1TYR    SC3  344   3.824   4.920   3.408  0.1863 -0.1013 -0.0019
    2GLU     BB  345   3.225   4.970   3.848 -0.0926  0.0390 -0.2016
    2GLU    SC1  346   3.422   5.013   4.171 -0.0278  0.1619  0.1336
    3TYR     BB  347   3.000   5.117   3.705  0.1704  0.0189 -0.1474
    3TYR    SC1  348   3.134   5.273   3.426 -0.1747  0.1469 -0.1261
    3TYR    SC2  349   3.278   5.423   3.253 -0.1802  0.1376 -0.1387
    3TYR    SC3  350   3.279   5.153   3.232  0.0096  0.1228  0.0233
    1TYR     BB  351   3.440   6.692   4.248 -0.0795 -0.1757  0.1461
    1TYR    SC1  352   3.304   7.015   4.202  0.1486  0.0651  0.1199
    1TYR    SC2  353   3.108   7.197   4.240  0.1117  0.0366  0.0666
    1TYR    SC3  354   3.353   7.278   4.162  0.2458  0.1194  0.5336
    2GLU     BB  355   3.356   6.532   4.574 -0.0986  0.0855 -0.1753
    2GLU    SC1  356   3.525   6.213   4.685 -0.1943  0.4229  0.0571
    3TYR     BB  357   3.173   6.634   4.806  0.2989 -0.0628 -0.3459
    3TYR    SC1  358   3.229   6.966   4.812 -0.0085  0.0386  0.0021
    3TYR    SC2  359   3.260   7.182   4.653  0.2860  0.0503  0.0668
    3TYR    SC3  360   3.091   7.193   4.863 -0.1502  0.0163 -0.2634
    1TYR     BB  361   1.899  -0.323   3.225  0.0865 -0.1089 -0.2936
    1TYR    SC1  362   1.913  -0.350   3.525 -0.0272  0.1181  0.2770
    1TYR    SC2  363   2.079  -0.352   3.738  0.0408 -0.4701  0.2391
    1TYR    SC3  364   1.868  -0.520   3.729 -0.2230 -0.1448  0.0258
    2GLU     BB  365   1.940  -0.327   2.967 -0.3371  0.1097 -0.0785
    2GLU    SC1  366   1.894  -0.733   2.867 -0.2828  0.2375 -0.3198
    3TYR     BB  367   2.139  -0.143   2.798  0.0770  0.2588  0.0304
    3TYR    SC1  368   2.031   0.070   2.678  0.0489 -0.3285 -0.4294
    3TYR    SC2  369   1.970   0.330   2.718  0.7165 -0.1946 -0.1102
    3TYR    SC3  370   1.973   0.229   2.467 -0.3423 -0.1461 -0.1987
    1TYR     BB  371   4.127   6.926   2.929 -0.1588  0.0382 -0.1540
    1TYR    SC1  372   3.920   6.868   3.116  0.0230  0.3403 -0.1156
    1TYR    SC2  373   3.758   6.863   3.332  0.2042 -0.2667  0.0302
    1TYR    SC3  374   3.686   6.733   3.106  0.2593 -0.0948 -0.0887
    2GLU     BB  375   4.097   7.158   2.745  0.3073  0.1324 -0.3603
    2GLU    SC1  376   4.438   7.115   2.574 -0.4125 -0.2695  0.2102
    3TYR     BB  377   4.009   7.403   2.899  0.1958  0.2287 -0.0553
    3TYR    SC1  378   4.046   7.368   3.217 -0.1636 -0.0638  0.0571
    3TYR    SC2  379   4.146   7.202   3.405 -0.3441  0.0475  0.2571
    3TYR    SC3  380   3.938   7.363   3.464 -0.1415  0.3865  0.0859
    1TYR     BB  381   3.303  -0.029   3.669 -0.2979 -0.3081  0.0425
    1TYR    SC1  382   3.462   0.018   3.388 -0.0509  0.0041  0.0708
    1TYR    SC2  383   3.577   0.223   3.255 -0.0145  0.0756  0.2092
    1TYR    SC3  384   3.647  -0.032   3.199  0.1729  0.1154  0.2539
    2GLU     BB  385   2.975  -0.022   3.574  0.0838  0.2593  0.0541
    2GLU    SC1  386   2.885  -0.005   3.956  0.3666 -0.1749  0.2289
    3TYR     BB  387   2.845   0.129   3.456 -0.0235 -0.2185  0.1127
    3TYR    SC1  388   3.079   0.356   3.314 -0.1622  0.0911 -0.4525
    3TYR    SC2  389   3.216   0.441   3.097  0.0506  0.4346 -0.1977
    3TYR    SC3  390   3.204   0.595   3.318  0.1996 -0.0791  0.1941
    1TYR     BB  391   7.793   7.026   3.922 -0.1816 -0.6469  0.2313
    1TYR    SC1  392   8.029   6.872   3.751 -0.0357 -0.0221 -0.1620
    1TYR    SC2  393   8.179   6.648   3.759 -0.0309 -0.0172 -0.1066
    1TYR    SC3  394   8.125   6.766   3.522 -0.0353 -0.0779 -0.1362
    2GLU     BB  395   7.519   6.835   3.948 -0.0198  0.1844  0.1436
    2GLU    SC1  396   7.453   6.593   4.235 -0.0804  0.0170 -0.0115
    3TYR     BB  397   7.261   6.781   3.757  0.0686 -0.0065 -0.0035
    3TYR    SC1  398   7.044   7.004   3.726  0.0931 -0.0171 -0.0050
    3TYR    SC2  399   6.967   7.264   3.729 -0.1426 -0.0838  0.0399
    3TYR    SC3  400   6.897   7.104   3.522 -0.1988 -0.1677  0.1228
    1TYR     BB  401   2.201   1.077   4.070 -0.1682 -0.1180  0.1634
    1TYR    SC1  402   2.479   1.148   3.996 -0.0891 -0.3575  0.1538
    1TYR    SC2  403   2.635   1.362   4.050 -0.4204 -0.1523  0.3380
    1TYR    SC3  404   2.747   1.133   3.963 -0.0663  0.1227  0.0252
    2GLU     BB  405   1.980   1.203   4.009  0.4389 -0.0053  0.1489
    2GLU    SC1  406   1.690   0.961   4.133  0.0394 -0.0203 -0.1451
    3TYR     BB  407   2.006   1.362   3.637  0.0144  0.1602 -0.2772
    3TYR    SC1  408   2.210   1.151   3.528  0.0836 -0.0593 -0.1548
    3TYR    SC2  409   2.367   0.999   3.370 -0.1399 -0.3178 -0.1389
    3TYR    SC3  410   2.323   0.927   3.626 -0.1471 -0.1521 -0.0915
    1TYR     BB  411   6.252   6.369   3.234 -0.0655  0.0853 -0.0433
    1TYR    SC1  412   6.115   6.246   3.501 -0.4158 -0.0438  0.1704
    1TYR    SC2  413   5.975   6.273   3.730 -0.1053 -0.0442  0.3676
    1TYR    SC3  414   6.045   6.027   3.643 -0.0745 -0.0348  0.3656
    2GLU     BB  415   6.525   6.200   3.247 -0.0610 -0.1828 -0.0241
    2GLU    SC1  416   6.558   6.167   2.866 -0.0046  0.1591 -0.4542
    3TYR     BB  417   6.748   5.979   3.429  0.0527 -0.2746  0.5647
    3TYR    SC1  418   6.520   5.793   3.508  0.3682 -0.3151  0.1363
    3TYR    SC2  419   6.326   5.617   3.445 -0.0323  0.2261 -0.2631
    3TYR    SC3  420   6.332   5.729   3.690  0.2573 -0.3401  0.0147
    1TYR     BB  421   3.369   0.266   2.120 -0.0369  0.1547 -0.0260
    1TYR    SC1  422   3.569   0.517   2.202 -0.0929 -0.2392  0.1613
    1TYR    SC2  423   3.705   0.749   2.208 -0.2719 -0.1081 -0.3043
    1TYR    SC3  424   3.696   0.593   2.428 -0.0469  0.2597 -0.0173
    2GLU     BB  425   3.106   0.273   2.078  0.1403 -0.1342  0.1156
    2GLU    SC1  426   3.089   0.318   1.665 -0.3059  0.0808 -0.0837
    3TYR     BB  427   2.837   0.407   2.151  0.0011  0.3478  0.2281
    3TYR    SC1  428   2.682   0.631   2.206 -0.0072 -0.3828  0.2857
    3TYR    SC2  429   2.479   0.802   2.157  0.2184 -0.1763  0.0325
    3TYR    SC3  430   2.674   0.870   2.331  0.0729 -0.3782  0.2826
    1TYR     BB  431   0.581   0.098   3.341 -0.0322  0.3374 -0.4062
    1TYR    SC1  432   0.514  -0.083   3.147  0.1849 -0.1301  0.0958
    1TYR    SC2  433   0.513  -0.173   2.893  0.4801 -0.3485  0.1644
    1TYR    SC3  434   0.385  -0.312   3.086 -0.1507  0.0585  0.0738
    2GLU     BB  435   0.494   0.413   3.257 -0.0650  0.1214  0.0780
    2GLU    SC1  436   0.627   0.604   3.573 -0.1605 -0.1497  0.0239
    3TYR     BB  437   0.533   0.493   3.021 -0.3256 -0.0401 -0.1741
    3TYR    SC1  438   0.694   0.614   2.756  0.1139  0.0029  0.2547
    3TYR    SC2  439   0.662   0.680   2.496  0.1177  0.0011  0.2538
    3TYR    SC3  440   0.903   0.596   2.585  0.1038 -0.0465  0.2472
    1TYR     BB  441   4.239   7.327   5.405  0.0465 -0.2726 -0.1694
    1TYR    SC1  442   4.466   7.374   5.166  0.2417 -0.2518 -0.1314
    1TYR    SC2  443   4.490   7.202   4.960 -0.2065 -0.0395 -0.3772
    1TYR    SC3  444   4.593   7.451   4.941  0.1734 -0.1678 -0.1416
    2GLU     BB  445   4.128   7.023   5.344 -0.1074  0.0302  0.3162
    2GLU    SC1  446   4.202   6.852   5.696 -0.1452  0.1533 -0.1051
    3TYR     BB  447   4.104   6.813   5.139 -0.0985 -0.0307 -0.1130
    3TYR    SC1  448   4.219   6.859   4.873 -0.1616  0.1345  0.0926
    3TYR    SC2  449   4.382   6.758   4.683 -0.3674 -0.2073  0.0869
    3TYR    SC3  450   4.199   6.946   4.618 -0.1326  0.0155  0.0489
    1TYR     BB  451   0.352   0.937   2.827  0.1093 -0.4621 -0.0701
    1TYR    SC1  452   0.579   1.160   2.903 -0.1789 -0.0268  0.1086
    1TYR    SC2  453   0.768   1.353   2.911  0.1276 -0.3083 -0.0729
    1TYR    SC3  454   0.641   1.278   3.137  0.1338 -0.0237  0.0288
    2GLU     BB  455   0.148   1.105   2.778  0.0873 -0.3222 -0.1160
    2GLU    SC1  456   0.079   1.337   3.096 -0.0116 -0.0078 -0.0760
    3TYR     BB  457   0.038   1.241   2.563  0.0001  0.2003 -0.1484
    3TYR    SC1  458   0.155   1.241   2.252 -0.1412  0.3358  0.1503
    3TYR    SC2  459   0.263   1.394   2.058  0.1361 -0.0437 -0.0122
    3TYR    SC3  460   0.256   1.126   2.029  0.1941 -0.1142  0.5087
    1TYR     BB  461   5.716   6.394   4.800  0.2359 -0.0298 -0.1314
    1TYR    SC1  462   5.955   6.432   4.976  0.0234  0.1213 -0.2179
    1TYR    SC2  463   6.129   6.282   5.119 -0.1742  0.1822  0.0977
    1TYR    SC3  464   6.133   6.551   5.141 -0.0161  0.2129 -0.2413
    2GLU     BB  465   5.463   6.603   4.838  0.0210 -0.1360 -0.0875
    2GLU    SC1  466   5.449   6.640   4.429 -0.0167  0.2049 -0.1406
    3TYR     BB  467   5.208   6.640   4.957  0.0576 -0.1601  0.1382
    3TYR    SC1  468   5.081   6.902   4.879 -0.2223 -0.1555 -0.3763
    3TYR    SC2  469   5.036   7.160   4.948  0.1335 -0.1595 -0.0913
    3TYR    SC3  470   4.878   7.039   4.765 -0.1295  0.2124 -0.1231
    1TYR     BB  471   4.287   7.218   3.896 -0.2607  0.1123  0.1525
    1TYR    SC1  472   4.160   7.002   4.055  0.3937 -0.2587  0.0784
    1TYR    SC2  473   4.215   6.772   4.186  0.0235 -0.3676  0.0551
    1TYR    SC3  474   3.977   6.803   4.062  0.0782  0.0200  0.0331
    2GLU     BB  475   4.204   7.458   3.938 -0.3954 -0.1841 -0.1293
    2GLU    SC1  476   4.406   7.658   3.638  0.1066 -0.0320 -0.0213
    3TYR     BB  477   4.116   7.685   4.088  0.1165  0.3263  0.0982
    3TYR    SC1  478   3.806   7.767   4.136 -0.0423 -0.3043  0.4933
    3TYR    SC2  479   3.591   7.919   4.078  0.2455 -0.0536 -0.0087
    3TYR    SC3  480   3.578   7.650   4.053 -0.0358 -0.0538  0.0897
    1TYR     BB  481   4.613   6.088   3.143  0.0900 -0.1323  0.2389
    1TYR    SC1  482   4.940   6.003   3.098  0.2405 -0.4508 -0.0022
    1TYR    SC2  483   5.139   6.091   2.938  0.2578  0.3152  0.3847
    1TYR    SC3  484   5.197   5.945   3.158  0.2990 -0.0958  0.1157
    2GLU     BB  485   4.459   5.936   3.320 -0.2033 -0.3513 -0.0643
    2GLU    SC1  486   4.292   5.630   3.061 -0.0227  0.0223 -0.1722
    3TYR     BB  487   4.132   6.031   3.409 -0.1418  0.0585 -0.4447
    3TYR    SC1  488   3.983   5.823   3.660  0.0683  0.1261  0.1209
    3TYR    SC2  489   3.818   5.908   3.856 -0.1751  0.3047 -0.1510
    3TYR    SC3  490   3.856   5.643   3.816 -0.0992  0.2654  0.1489
    1TYR     BB  491  -0.051   0.023   2.282 -0.4377 -0.0624 -0.0277
    1TYR    SC1  492  -0.295  -0.196   2.247 -0.0314 -0.2012  0.1499
    1TYR    SC2  493  -0.536  -0.232   2.132  0.0208 -0.1694  0.0285
    1TYR    SC3  494  -0.514  -0.236   2.400 -0.1144 -0.1730  0.0410
    2GLU     BB  495  -0.025   0.229   2.518 -0.1756 -0.0523 -0.0601
    2GLU    SC1  496  -0.351   0.134   2.662 -0.0716  0.0632  0.0281
    3TYR     BB  497   0.202   0.322   2.730 -0.0855  0.0056 -0.0703
    3TYR    SC1  498   0.130   0.204   2.996 -0.0848 -0.2759 -0.1334
    3TYR    SC2  499   0.100   0.052   3.217 -0.0634  0.0158  0.0777
    3TYR    SC3  500  -0.112   0.181   3.112 -0.0199  0.1071  0.1007
    1TYR     BB  501   2.753   1.573   2.930 -0.3693  0.1722 -0.2186
    1TYR    SC1  502   2.695   1.730   3.164 -0.1519  0.0933 -0.1203
    1TYR    SC2  503   2.828   1.934   3.281  0.1021 -0.0472 -0.1534
    1TYR    SC3  504   2.581   1.867   3.367  0.2279 -0.0643  0.2195
    2GLU     BB  505   2.876   1.344   2.932 -0.0047 -0.0386 -0.0769
    2GLU    SC1  506   2.959   1.239   2.598  0.1374  0.1691  0.1183
    3TYR     BB  507   2.794   1.126   3.153 -0.1099 -0.0473  0.1448
    3TYR    SC1  508   2.740   1.302   3.411 -0.0608 -0.0214  0.0480
    3TYR    SC2  509   2.593   1.440   3.591 -0.1760  0.2097 -0.2130
    3TYR    SC3  510   2.859   1.488   3.565 -0.0687 -0.1114  0.1643
    1TYR     BB  511   4.695   7.263   5.559 -0.1730 -0.2279  0.2648
    1TYR    SC1  512   4.911   7.409   5.450  0.1575 -0.2779  0.0213
    1TYR    SC2  513   4.999   7.507   5.215 -0.0783 -0.3155 -0.0862
    1TYR    SC3  514   5.176   7.438   5.407  0.1320 -0.5036 -0.3388
    2GLU     BB  515   4.665   7.116   5.748  0.0724 -0.1526 -0.1498
    2GLU    SC1  516   4.392   7.357   5.971  0.0094 -0.4928 -0.1664
    3TYR     BB  517   4.709   6.815   5.811  0.0860 -0.1624  0.1769
    3TYR    SC1  518   4.639   6.579   5.611  0.1455 -0.2731  0.0716
    3TYR    SC2  519   4.437   6.489   5.456  0.1496 -0.1429 -0.0110
    3TYR    SC3  520   4.677   6.364   5.452  0.1423 -0.1546 -0.0911
    1TYR     BB  521   5.066   6.956   5.461 -0.0864  0.0990  0.2557
    1TYR    SC1  522   4.864   6.837   5.288 -0.1223  0.4288 -0.1365
    1TYR    SC2  523   4.720   6.667   5.136  0.1092  0.1133 -0.0158
    1TYR    SC3  524   4.598   6.874   5.258 -0.1754  0.0550 -0.1888
    2GLU     BB  525   5.316   6.947   5.439  0.0552 -0.0240  0.0341
    2GLU    SC1  526   5.504   7.111   5.702 -0.2955  0.1647 -0.0374
    3TYR     BB  527   5.529   6.805   5.323 -0.1945  0.2370 -0.0280
    3TYR    SC1  528   5.787   6.623   5.400  0.0916 -0.0338  0.0096
    3TYR    SC2  529   5.946   6.452   5.535  0.1523  0.0421  0.0348
    3TYR    SC3  530   5.740   6.357   5.390  0.0259 -0.0350  0.2583
    1TYR     BB  531   3.612   4.106   3.920  0.1528  0.2368 -0.0125
    1TYR    SC1  532   3.798   4.011   4.178  0.3241 -0.0258  0.1847
    1TYR    SC2  533   3.975   4.049   4.378  0.2286  0.0639  0.2538
    1TYR    SC3  534   3.743   3.918   4.425  0.3074 -0.1187  0.1463
    2GLU     BB  535   3.589   3.865   3.771  0.1815  0.3696  0.0984
    2GLU    SC1  536   3.861   3.700   3.553  0.1901 -0.0770  0.1542
    3TYR     BB  537   3.317   3.803   3.588 -0.0426 -0.1498  0.1829
    3TYR    SC1  538   3.417   3.689   3.330  0.1355  0.0080 -0.0407
    3TYR    SC2  539   3.340   3.651   3.074  0.1829  0.0370 -0.0594
    3TYR    SC3  540   3.567   3.788   3.128  0.2202 -0.0454 -0.0047
    1TYR     BB  541   2.992   1.866   4.664  0.0821  0.1841  0.0233
    1TYR    SC1  542   3.059   2.021   4.959  0.1532 -0.1209 -0.1615
    1TYR    SC2  543   3.010   2.249   5.096 -0.0016 -0.1919 -0.0977
    1TYR    SC3  544   3.258   2.143   5.096 -0.0435 -0.3139  0.3243
    2GLU     BB  545   2.967   1.601   4.684 -0.0639 -0.0089 -0.1083
    2GLU    SC1  546   3.249   1.583   4.980 -0.3157  0.1730  0.0501
    3TYR     BB  547   2.723   1.484   4.800 -0.1560  0.2341  0.1974
    3TYR    SC1  548   2.712   1.581   5.100 -0.0476 -0.0943 -0.0104
    3TYR    SC2  549   2.565   1.772   5.222 -0.2932 -0.2835 -0.0003
    3TYR    SC3  550   2.808   1.705   5.321  0.1132  0.4735 -0.3718
    1TYR     BB  551   5.999   7.073   3.937  0.0287 -0.1402 -0.3565
    1TYR    SC1  552   6.104   6.785   3.906 -0.3342 -0.0281 -0.3495
    1TYR    SC2  553   6.182   6.539   3.987  0.0835  0.2238  0.0814
    1TYR    SC3  554   6.244   6.626   3.739  0.1167 -0.0231 -0.0006
    2GLU     BB  555   5.989   7.225   4.282  0.2316 -0.0117  0.2412
    2GLU    SC1  556   6.228   7.361   4.452 -0.0754  0.3410  0.2133
    3TYR     BB  557   5.749   7.108   4.463 -0.2199 -0.0070 -0.1429
    3TYR    SC1  558   5.462   7.182   4.387 -0.0254  0.0412 -0.2481
    3TYR    SC2  559   5.236   7.121   4.522  0.0024 -0.1601 -0.2882
    3TYR    SC3  560   5.237   7.326   4.347  0.0204  0.2414  0.1574
    1TYR     BB  561   3.018   0.113   5.037 -0.3151 -0.2680  0.0533
    1TYR    SC1  562   2.885  -0.110   5.172  0.1950  0.3165  0.4336
    1TYR    SC2  563   2.635  -0.083   5.267 -0.1405  0.1864 -0.3198
    1TYR    SC3  564   2.776  -0.306   5.322 -0.3623  0.0618 -0.2306
    2GLU     BB  565   2.936   0.409   5.138 -0.2461 -0.0789 -0.4084
    2GLU    SC1  566   2.598   0.383   5.292  0.4109 -0.0077 -0.0940
    3TYR     BB  567   2.802   0.727   4.944  0.0192 -0.0002 -0.0828
    3TYR    SC1  568   3.062   0.831   4.810  0.0999  0.1969  0.2536
    3TYR    SC2  569   3.155   1.073   4.737  0.1285  0.1313  0.0658
    3TYR    SC3  570   3.328   0.879   4.812  0.1094  0.1503  0.1607
    1TYR     BB  571   5.396   5.445   3.861  0.1399 -0.0538  0.1321
    1TYR    SC1  572   5.475   5.232   4.039 -0.0778  0.1254 -0.1333
    1TYR    SC2  573   5.570   5.158   4.281 -0.3416  0.2823  0.0248
    1TYR    SC3  574   5.427   4.983   4.133  0.0049  0.1130 -0.1233
    2GLU     BB  575   5.139   5.463   3.801  0.1026  0.1415 -0.2754
    2GLU    SC1  576   5.193   5.458   3.414  0.1828 -0.0860 -0.1000
    3TYR     BB  577   4.825   5.455   3.886 -0.1160 -0.2762 -0.1394
    3TYR    SC1  578   4.673   5.656   3.813 -0.1167 -0.1964  0.1070
    3TYR    SC2  579   4.584   5.909   3.842  0.0208 -0.1016 -0.2357
    3TYR    SC3  580   4.410   5.709   3.790 -0.0751 -0.0614 -0.0790
    1TYR     BB  581   4.020   7.380   4.915 -0.0112 -0.0048  0.3792
    1TYR    SC1  582   3.862   7.130   4.871  0.0208 -0.0756 -0.3028
    1TYR    SC2  583   3.722   6.915   4.789 -0.1724 -0.1676  0.2248
    1TYR    SC3  584   3.654   7.041   5.018  0.1406  0.2627  0.0953
    2GLU     BB  585   3.869   7.549   5.104  0.0775 -0.0245 -0.0376
    2GLU    SC1  586   3.878   7.686   5.461 -0.0103 -0.0413 -0.2573
    3TYR     BB  587   3.484   7.525   4.927 -0.1462  0.1777 -0.4315
    3TYR    SC1  588   3.352   7.341   5.162  0.0260 -0.0376  0.0097
    3TYR    SC2  589   3.222   7.207   5.358 -0.0418  0.0771  0.0443
    3TYR    SC3  590   3.487   7.255   5.380 -0.0121 -0.0708  0.0205
    1TYR     BB  591   5.206   7.599   4.760 -0.0991 -0.1024  0.0670
    1TYR    SC1  592   5.520   7.564   4.661 -0.1710  0.0923 -0.1777
    1TYR    SC2  593   5.783   7.527   4.710 -0.2529 -0.2203  0.0676
    1TYR    SC3  594   5.699   7.590   4.461  0.0508 -0.1108 -0.0121
    2GLU     BB  595   5.230   7.932   4.929 -0.0944  0.1317  0.1073
    2GLU    SC1  596   5.269   8.327   4.795 -0.2893  0.1339 -0.2282
    3TYR     BB  597   5.244   8.008   5.239 -0.0779 -0.1275  0.2397
    3TYR    SC1  598   5.531   8.124   5.290  0.2218  0.0034  0.1482
    3TYR    SC2  599   5.788   8.053   5.331  0.1913 -0.0156  0.3141
    3TYR    SC3  600   5.731   8.284   5.204  0.2896 -0.1018  0.1076
    1TYR     BB  601   3.658   1.931   3.893  0.0414  0.1949  0.0423
    1TYR    SC1  602   3.584   1.635   3.898 -0.3993 -0.1236  0.0101
    1TYR    SC2  603   3.558   1.377   3.822 -0.1513 -0.1970  0.1610
    1TYR    SC3  604   3.526   1.446   4.081 -0.2032 -0.0775  0.1237
    2GLU     BB  605   3.422   2.075   4.071  0.2091  0.1908 -0.0121
    2GLU    SC1  606   3.629   2.406   4.078  0.1598  0.2327 -0.0376
    3TYR     BB  607   3.173   2.006   4.182  0.1658  0.0450  0.1757
    3TYR    SC1  608   3.119   1.698   4.198  0.1194  0.1023 -0.4592
    3TYR    SC2  609   3.093   1.432   4.238  0.0346  0.1478 -0.1845
    3TYR    SC3  610   3.047   1.537   3.993  0.1012 -0.0916 -0.3042
    1TYR     BB  611   6.767   7.389   4.223  0.0237  0.2049  0.0102
    1TYR    SC1  612   6.917   7.100   4.232  0.0946  0.3258 -0.1709
    1TYR    SC2  613   7.178   7.032   4.208 -0.0681 -0.3425 -0.3119
    1TYR    SC3  614   6.986   6.844   4.183 -0.5812  0.1403 -0.2792
    2GLU     BB  615   6.522   7.332   4.006 -0.2475 -0.3391 -0.0476
    2GLU    SC1  616   6.597   7.708   3.832  0.2123 -0.1622  0.0825
    3TYR     BB  617   6.489   7.079   3.868 -0.1374  0.0529 -0.1737
    3TYR    SC1  618   6.530   6.837   4.061 -0.1103  0.1823 -0.3648
    3TYR    SC2  619   6.552   6.642   4.246  0.2413 -0.1663 -0.7480
    3TYR    SC3  620   6.355   6.825   4.266  0.0144 -0.4391 -0.2708
    1TYR     BB  621   4.399   6.375   6.033  0.2349 -0.0906  0.1692
    1TYR    SC1  622   4.384   6.139   5.829 -0.4595 -0.3425  0.3444
    1TYR    SC2  623   4.257   6.077   5.600  0.1570  0.2292 -0.2085
    1TYR    SC3  624   4.471   5.933   5.678 -0.0641  0.0227  0.0428
    2GLU     BB  625   4.635   6.310   6.245 -0.1496  0.0003 -0.0199
    2GLU    SC1  626   4.399   6.379   6.523 -0.1363 -0.1576 -0.0336
    3TYR     BB  627   4.896   6.452   6.370 -0.2303 -0.0752 -0.0195
    3TYR    SC1  628   5.108   6.210   6.254 -0.1377  0.1424 -0.2417
    3TYR    SC2  629   5.282   6.152   6.057  0.2201  0.0639  0.0824
    3TYR    SC3  630   5.179   5.954   6.208  0.0189  0.1303  0.0352
    1TYR     BB  631   1.030   1.495   2.512  0.1755 -0.1622  0.0883
    1TYR    SC1  632   1.257   1.456   2.686 -0.2235 -0.0252  0.2447
    1TYR    SC2  633   1.445   1.311   2.815  0.2084  0.1106 -0.1942
    1TYR    SC3  634   1.286   1.480   2.953 -0.0115 -0.4347  0.2684
    2GLU     BB  635   1.006   1.619   2.270  0.2995 -0.0884 -0.0120
    2GLU    SC1  636   0.694   1.904   2.331  0.0416  0.0543  0.1760
    3TYR     BB  637   1.169   1.824   2.131 -0.1745  0.2154  0.0748
    3TYR    SC1  638   1.124   2.160   2.214 -0.0470  0.1118  0.2041
    3TYR    SC2  639   1.122   2.371   2.382  0.0088  0.2229  0.0673
    3TYR    SC3  640   0.973   2.376   2.157  0.0781  0.1529  0.0194
    1TYR     BB  641   3.467   2.124   4.602  0.0415  0.0817 -0.3694
    1TYR    SC1  642   3.452   1.848   4.555 -0.1314 -0.0605 -0.0735
    1TYR    SC2  643   3.618   1.727   4.380  0.0286  0.0294  0.0141
    1TYR    SC3  644   3.446   1.579   4.526  0.2546 -0.1028  0.1547
    2GLU     BB  645   3.233   2.376   4.505 -0.0628  0.1429 -0.0398
    2GLU    SC1  646   3.293   2.622   4.799 -0.0083  0.1018  0.3697
    3TYR     BB  647   2.914   2.360   4.578  0.0565  0.3329  0.2069
    3TYR    SC1  648   2.742   2.339   4.329  0.4009  0.2570 -0.2108
    3TYR    SC2  649   2.809   2.252   4.082 -0.0668 -0.1377 -0.2186
    3TYR    SC3  650   2.554   2.231   4.168  0.1466 -0.3632  0.4367
    1TYR     BB  651   3.324   3.236   3.988  0.2936  0.1128 -0.0513
    1TYR    SC1  652   3.075   3.301   4.083 -0.0071  0.0284  0.2271
    1TYR    SC2  653   2.930   3.492   4.208 -0.0841  0.1691 -0.0654
    1TYR    SC3  654   2.815   3.257   4.141 -0.0603  0.1190  0.0642
    2GLU     BB  655   3.446   3.359   3.740 -0.1401  0.1330  0.1109
    2GLU    SC1  656   3.834   3.228   3.691 -0.1466 -0.0129  0.2229
    3TYR     BB  657   3.267   3.202   3.490 -0.0045 -0.0093  0.1389
    3TYR    SC1  658   3.009   3.082   3.588  0.1687 -0.6219 -0.0366
    3TYR    SC2  659   2.807   2.904   3.607 -0.2516 -0.1504  0.2207
    3TYR    SC3  660   2.770   3.159   3.688  0.2292  0.1469 -0.3898
    1TYR     BB  661   0.530  -0.149   2.017  0.2062 -0.2508  0.1558
    1TYR    SC1  662   0.548   0.013   1.773  0.3187 -0.2239 -0.3799
    1TYR    SC2  663   0.337   0.136   1.658  0.0267  0.0139  0.3355
    1TYR    SC3  664   0.560   0.277   1.719  0.2706 -0.1594 -0.0976
    2GLU     BB  665   0.761  -0.348   2.063  0.0374 -0.4557 -0.0368
    2GLU    SC1  666   0.637  -0.547   1.722  0.0976 -0.1933  0.5591
    3TYR     BB  667   0.961  -0.628   2.083 -0.1839  0.0960 -0.0621
    3TYR    SC1  668   1.201  -0.660   2.254 -0.0872  0.2383 -0.0647
    3TYR    SC2  669   1.234  -0.636   2.521 -0.0756  0.1638 -0.0591
    3TYR    SC3  670   1.442  -0.592   2.355 -0.1295  0.3989 -0.0688
    1TYR     BB  671   1.467   2.143   3.605  0.0287 -0.0805 -0.0524
    1TYR    SC1  672   1.444   2.441   3.724  0.0218  0.0284 -0.1169
    1TYR    SC2  673   1.382   2.658   3.874  0.1730  0.1360 -0.2077
    1TYR    SC3  674   1.224   2.588   3.666  0.0152  0.0418 -0.0592
    2GLU     BB  675   1.219   2.085   3.427 -0.3295  0.1339  0.1259
    2GLU    SC1  676   0.873   2.038   3.620  0.2315  0.2726  0.0340
    3TYR     BB  677   1.084   2.197   3.161 -0.0077  0.2345 -0.1463
    3TYR    SC1  678   1.036   2.480   3.148  0.3335 -0.0186 -0.1673
    3TYR    SC2  679   1.109   2.740   3.138  0.0812  0.0586 -0.0809
    3TYR    SC3  680   0.857   2.667   3.071  0.0614 -0.1244  0.1748
    1TYR     BB  681   1.540   2.023   4.576  0.3399  0.2544 -0.3448
    1TYR    SC1  682   1.263   1.906   4.779  0.0875 -0.2484  0.0833
    1TYR    SC2  683   1.059   1.995   4.932  0.0552  0.1145 -0.1562
    1TYR    SC3  684   1.159   1.747   4.971 -0.1220  0.1002  0.2701
    2GLU     BB  685   1.665   1.830   4.443 -0.1244  0.0199 -0.0685
    2GLU    SC1  686   1.592   1.545   4.684 -0.3377 -0.1515  0.0528
    3TYR     BB  687   1.953   1.722   4.354  0.1254  0.0586 -0.1789
    3TYR    SC1  688   2.119   1.768   4.632  0.0642  0.0173 -0.2226
    3TYR    SC2  689   2.337   1.769   4.792  0.0330  0.0539 -0.1796
    3TYR    SC3  690   2.132   1.601   4.844  0.1563 -0.1613 -0.3663
    1TYR     BB  691   2.277  -0.649   3.359 -0.1591  0.0225 -0.3715
    1TYR    SC1  692   2.010  -0.796   3.377  0.1385  0.2055  0.1929
    1TYR    SC2  693   1.848  -1.008   3.422  0.2376  0.0103 -0.2882
    1TYR    SC3  694   1.741  -0.762   3.393  0.0899 -0.0207 -0.0482
    2GLU     BB  695   2.391  -0.734   3.107  0.1032  0.0771 -0.1555
    2GLU    SC1  696   2.334  -1.116   3.246  0.1493 -0.0778 -0.0260
    3TYR     BB  697   2.365  -0.600   2.819 -0.1849  0.1550 -0.0448
    3TYR    SC1  698   2.627  -0.590   2.653  0.1330  0.1779  0.1313
    3TYR    SC2  699   2.748  -0.728   2.455 -0.0274  0.1777  0.0320
    3TYR    SC3  700   2.894  -0.567   2.615  0.0943  0.2347 -0.1324
    1TYR     BB  701   4.302   7.393   4.446 -0.1440 -0.2629 -0.0247
    1TYR    SC1  702   3.942   7.329   4.374 -0.0345  0.0931 -0.0180
    1TYR    SC2  703   3.768   7.122   4.390  0.0172  0.0612  0.1467
    1TYR    SC3  704   3.681   7.375   4.429  0.0449  0.0270  0.4713
    2GLU     BB  705   4.476   7.276   4.395  0.2395  0.1249  0.0096
    2GLU    SC1  706   4.758   7.529   4.459  0.2154 -0.2384  0.0621
    3TYR     BB  707   4.665   7.051   4.376  0.2944  0.2074  0.6120
    3TYR    SC1  708   4.673   6.811   4.184 -0.1081 -0.0110 -0.1829
    3TYR    SC2  709   4.599   6.599   4.034  0.2261 -0.0539 -0.2987
    3TYR    SC3  710   4.700   6.820   3.916  0.0515  0.1022 -0.1653
    1TYR     BB  711   5.486   5.974   5.603 -0.1139  0.1814 -0.1555
    1TYR    SC1  712   5.717   5.907   5.363 -0.1301  0.1288  0.2916
    1TYR    SC2  713   5.763   5.953   5.101 -0.0142 -0.2657  0.2352
    1TYR    SC3  714   5.970   5.913   5.269 -0.0776  0.1684  0.4330
    2GLU     BB  715   5.397   5.777   5.724 -0.1547  0.0385  0.0944
    2GLU    SC1  716   5.604   5.713   6.052 -0.1373  0.0167 -0.0054
    3TYR     BB  717   5.235   5.584   5.735  0.0709  0.1768 -0.3813
    3TYR    SC1  718   5.200   5.343   5.578 -0.1454 -0.2644  0.3936
    3TYR    SC2  719   5.305   5.097   5.544 -0.1378 -0.1807 -0.5096
    3TYR    SC3  720   5.066   5.157   5.436 -0.2116  0.1820 -0.1760
    1TYR     BB  721   0.882   1.825   2.833  0.0283 -0.4149  0.0200
    1TYR    SC1  722   1.155   1.909   2.763 -0.1435  0.5743  0.1012
    1TYR    SC2  723   1.352   1.958   2.587  0.0439 -0.3520 -0.0086
    1TYR    SC3  724   1.411   1.915   2.847 -0.0195 -0.5119 -0.0190
    2GLU     BB  725   0.857   1.752   3.164  0.5032 -0.2436 -0.1537
    2GLU    SC1  726   0.418   1.775   3.235  0.2203 -0.3058 -0.0177
    3TYR     BB  727   1.007   1.571   3.335  0.1223 -0.2428  0.4468
    3TYR    SC1  728   1.100   1.563   3.595 -0.1064  0.0791  0.0448
    3TYR    SC2  729   1.107   1.694   3.831 -0.4090 -0.0078  0.1068
    3TYR    SC3  730   1.165   1.430   3.821  0.2750  0.1255 -0.0295
    1TYR     BB  731   2.860   3.324   4.668  0.0026 -0.0076  0.1921
    1TYR    SC1  732   2.605   3.317   4.540 -0.0404  0.3754  0.0763
    1TYR    SC2  733   2.369   3.364   4.419  0.0118  0.0307 -0.1805
    1TYR    SC3  734   2.402   3.141   4.567  0.1815  0.0675 -0.1610
    2GLU     BB  735   2.977   3.617   4.677  0.0268 -0.3520 -0.4164
    2GLU    SC1  736   3.067   3.520   5.078 -0.0903 -0.0953 -0.1252
    3TYR     BB  737   2.810   3.867   4.555  0.1167  0.1304 -0.1684
    3TYR    SC1  738   2.548   3.818   4.360  0.0655  0.2063  0.1140
    3TYR    SC2  739   2.516   3.664   4.140  0.0354 -0.1570  0.3613
    3TYR    SC3  740   2.403   3.909   4.151  0.1111 -0.0935 -0.0563
    1TYR     BB  741   3.367   5.995   3.974 -0.0401  0.2622 -0.1629
    1TYR    SC1  742   3.559   6.197   4.080  0.1113 -0.2140 -0.1103
    1TYR    SC2  743   3.765   6.358   4.017  0.0759 -0.2052 -0.2047
    1TYR    SC3  744   3.773   6.213   4.244 -0.0541  0.2141  0.0837
    2GLU     BB  745   3.113   5.970   4.157  0.1650 -0.1028 -0.1158
    2GLU    SC1  746   3.025   6.343   4.234 -0.2526 -0.1918  0.0154
    3TYR     BB  747   3.188   5.858   4.495  0.0234  0.0337  0.1000
    3TYR    SC1  748   3.215   5.570   4.404  0.3468 -0.0396 -0.2374
    3TYR    SC2  749   3.187   5.318   4.497 -0.1634  0.1752  0.2617
    3TYR    SC3  750   3.083   5.385   4.257 -0.2049 -0.0397  0.2169
    1TYR     BB  751   5.521   5.777   4.754 -0.0889  0.1762 -0.0148
    1TYR    SC1  752   5.523   5.483   4.771  0.3084 -0.0277 -0.0414
    1TYR    SC2  753   5.403   5.259   4.862  0.1116  0.0839 -0.0177
    1TYR    SC3  754   5.620   5.240   4.703  0.1855 -0.1196  0.1011
    2GLU     BB  755   5.633   5.919   4.553 -0.0507  0.3371 -0.1203
    2GLU    SC1  756   5.725   5.631   4.265  0.2698 -0.1088 -0.3973
    3TYR     BB  757   5.656   6.154   4.360 -0.1172  0.0987 -0.1062
    3TYR    SC1  758   5.597   6.087   4.104  0.1420  0.0822 -0.3563
    3TYR    SC2  759   5.723   5.933   3.922  0.1059 -0.4156  0.0132
    3TYR    SC3  760   5.453   5.941   3.927  0.1078 -0.2363 -0.0785
    1TYR     BB  761   3.654   0.600   3.515 -0.0069  0.0134  0.2526
    1TYR    SC1  762   3.742   0.360   3.647  0.0285  0.0549  0.1926
    1TYR    SC2  763   3.990   0.272   3.704  0.0410  0.0569  0.1420
    1TYR    SC3  764   3.797   0.096   3.633  0.1556  0.0959 -0.2988
    2GLU     BB  765   3.709   0.670   3.169 -0.1268 -0.0875  0.1360
    2GLU    SC1  766   4.086   0.725   3.284  0.0383  0.0083  0.2949
    3TYR     BB  767   3.591   0.628   2.897 -0.1391 -0.0313 -0.0209
    3TYR    SC1  768   3.587   0.349   2.754  0.0839 -0.2582  0.2029
    3TYR    SC2  769   3.488   0.100   2.726  0.2615 -0.3496  0.3581
    3TYR    SC3  770   3.752   0.145   2.692  0.2027 -0.1447  0.1386
    1TYR     BB  771   2.611   0.797   4.442 -0.0134  0.0219 -0.2770
    1TYR    SC1  772   2.639   0.708   4.155  0.0228  0.2344 -0.1286
    1TYR    SC2  773   2.565   0.733   3.897 -0.2034 -0.1852 -0.1152
    1TYR    SC3  774   2.720   0.526   3.973  0.1479  0.1193  0.0387
    2GLU     BB  775   2.578   1.118   4.509 -0.0612 -0.2452 -0.0561
    2GLU    SC1  776   2.425   1.142   4.903 -0.0088 -0.0592 -0.2151
    3TYR     BB  777   2.406   1.385   4.428 -0.0081 -0.3053  0.1777
    3TYR    SC1  778   2.472   1.691   4.376 -0.1186  0.0748  0.0302
    3TYR    SC2  779   2.562   1.928   4.469  0.1041 -0.0724  0.2031
    3TYR    SC3  780   2.677   1.816   4.252 -0.1986  0.1138 -0.0648
    1TYR     BB  781   6.754   5.611   3.920 -0.3707 -0.1081  0.1299
    1TYR    SC1  782   6.516   5.536   4.132  0.2076 -0.1105  0.2335
    1TYR    SC2  783   6.266   5.454   4.195  0.0333 -0.0535 -0.3208
    1TYR    SC3  784   6.465   5.433   4.377 -0.4277  0.1940  0.2537
    2GLU     BB  785   6.754   5.975   3.945 -0.3554  0.0521 -0.0872
    2GLU    SC1  786   6.985   5.983   4.295 -0.0045  0.0956  0.3413
    3TYR     BB  787   6.520   6.220   3.882 -0.0701 -0.0016 -0.0732
    3TYR    SC1  788   6.298   6.072   4.049  0.2541  0.0599  0.0369
    3TYR    SC2  789   6.056   6.117   4.161 -0.0292  0.0423 -0.5235
    3TYR    SC3  790   6.159   5.867   4.156  0.1654  0.0983 -0.0029
    1TYR     BB  791   5.270   5.676   5.151 -0.2490 -0.0613 -0.3990
    1TYR    SC1  792   5.499   5.494   5.241 -0.3723 -0.2169 -0.2489
    1TYR    SC2  793   5.697   5.351   5.357 -0.5472 -0.1453  0.1594
    1TYR    SC3  794   5.745   5.487   5.129 -0.1245 -0.1207  0.2518
    2GLU     BB  795   5.018   5.753   5.295  0.1523 -0.0391  0.0188
    2GLU    SC1  796   4.808   5.448   5.183  0.5698  0.0397 -0.1062
    3TYR     BB  797   4.962   5.967   5.351  0.1114 -0.1433 -0.1538
    3TYR    SC1  798   4.990   6.106   5.636  0.1509  0.1692  0.0599
    3TYR    SC2  799   4.918   6.299   5.810 -0.1786  0.0351  0.0813
    3TYR    SC3  800   4.882   6.039   5.874  0.1254 -0.0335 -0.0061
    1TYR     BB  801   0.899   0.842   3.157  0.0458 -0.2016  0.0812
    1TYR    SC1  802   1.003   0.989   2.863 -0.0398  0.0236 -0.0707
    1TYR    SC2  803   1.166   0.978   2.647 -0.1940 -0.1097 -0.1839
    1TYR    SC3  804   0.900   1.014   2.614 -0.2254 -0.1788 -0.0183
    2GLU     BB  805   1.089   0.866   3.344 -0.0468  0.1837 -0.1475
    2GLU    SC1  806   0.869   1.061   3.622 -0.2062 -0.1472  0.0116
    3TYR     BB  807   1.262   1.127   3.322 -0.0279  0.3726  0.0654
    3TYR    SC1  808   1.423   1.123   3.551 -0.1060 -0.0358 -0.0332
    3TYR    SC2  809   1.431   0.996   3.789 -0.2117  0.1117  0.0510
    3TYR    SC3  810   1.546   1.239   3.762 -0.1086  0.0500 -0.0783
    1TYR     BB  811   2.947   4.774   4.603 -0.0753 -0.0578 -0.2284
    1TYR    SC1  812   2.831   5.075   4.666  0.0879  0.1048 -0.1388
    1TYR    SC2  813   2.725   5.305   4.760 -0.4471 -0.3906  0.6258
    1TYR    SC3  814   2.585   5.152   4.587 -0.1007 -0.1852  0.1329
    2GLU     BB  815   2.643   4.614   4.548 -0.2392 -0.1140  0.0831
    2GLU    SC1  816   2.467   4.737   4.870 -0.2835 -0.0219  0.0515
    3TYR     BB  817   2.706   4.332   4.262  0.2731 -0.0799  0.0257
    3TYR    SC1  818   3.016   4.384   4.239 -0.1055 -0.0930  0.0045
    3TYR    SC2  819   3.252   4.333   4.117  0.0385 -0.1832  0.3071
    3TYR    SC3  820   3.168   4.588   4.147 -0.0061 -0.1595  0.0177
    1TYR     BB  821   2.027   2.937   4.227 -0.1569 -0.0609  0.0610
    1TYR    SC1  822   2.225   3.051   4.070 -0.3932  0.0569 -0.3677
    1TYR    SC2  823   2.332   3.048   3.823 -0.0562  0.3740 -0.2381
    1TYR    SC3  824   2.431   3.216   4.010  0.0343 -0.1926  0.2627
    2GLU     BB  825   2.143   2.700   4.511  0.2558  0.0336  0.2717
    2GLU    SC1  826   1.787   2.843   4.685 -0.3536 -0.2015 -0.3340
    3TYR     BB  827   2.427   2.550   4.582  0.0767 -0.2466 -0.1339
    3TYR    SC1  828   2.444   2.282   4.750 -0.4768 -0.2111  0.0045
    3TYR    SC2  829   2.466   2.320   5.017  0.0159 -0.1115 -0.0400
    3TYR    SC3  830   2.630   2.146   4.890  0.1071  0.1805 -0.3404
    1TYR     BB  831   3.281   2.457   2.724 -0.1366 -0.0011  0.1331
    1TYR    SC1  832   3.508   2.586   2.650  0.0021  0.0628 -0.2839
    1TYR    SC2  833   3.669   2.801   2.677 -0.0206  0.0616 -0.1280
    1TYR    SC3  834   3.770   2.568   2.585  0.1422 -0.0244  0.2451
    2GLU     BB  835   3.293   2.386   3.022  0.1162  0.4239 -0.1496
    2GLU    SC1  836   3.652   2.211   2.990  0.2069  0.0709 -0.2566
    3TYR     BB  837   3.217   2.186   3.206  0.1212 -0.1588 -0.0685
    3TYR    SC1  838   3.147   2.325   3.467 -0.0093 -0.1182  0.0441
    3TYR    SC2  839   3.127   2.326   3.736 -0.0719  0.1868  0.0439
    3TYR    SC3  840   2.945   2.458   3.587 -0.3043 -0.3478 -0.1790
    1TYR     BB  841   3.245   1.858   3.658  0.2341 -0.1165 -0.0270
    1TYR    SC1  842   2.955   1.929   3.733 -0.0234 -0.2494  0.0993
    1TYR    SC2  843   2.743   2.090   3.686  0.0017 -0.3744 -0.5738
    1TYR    SC3  844   2.704   1.840   3.781 -0.1066 -0.2634 -0.3131
    2GLU     BB  845   3.316   1.742   3.444  0.1726  0.0995 -0.2546
    2GLU    SC1  846   3.683   1.816   3.330  0.0085  0.1208 -0.1158
    3TYR     BB  847   3.330   1.466   3.284  0.2888  0.1204 -0.0221
    3TYR    SC1  848   3.278   1.257   3.462 -0.2455  0.1195 -0.2195
    3TYR    SC2  849   3.139   1.148   3.666 -0.2049  0.2082 -0.1441
    3TYR    SC3  850   3.322   1.000   3.534  0.0668  0.2653  0.1518
    1TYR     BB  851   3.225   6.672   3.296  0.1129 -0.3773 -0.2675
    1TYR    SC1  852   3.329   7.000   3.278 -0.1431  0.1582  0.1846
    1TYR    SC2  853   3.238   7.253   3.262  0.0598  0.2157 -0.2146
    1TYR    SC3  854   3.498   7.207   3.318 -0.0002  0.0887 -0.0316
    2GLU     BB  855   3.299   6.644   3.592 -0.2506  0.1440  0.2977
    2GLU    SC1  856   3.117   6.348   3.721  0.0483 -0.0936  0.1363
    3TYR     BB  857   3.550   6.721   3.774 -0.0554  0.1338  0.0678
    3TYR    SC1  858   3.624   7.027   3.844 -0.3172  0.0450  0.4974
    3TYR    SC2  859   3.621   7.278   3.744 -0.0100 -0.1004  0.0889
    3TYR    SC3  860   3.775   7.219   3.958  0.0403  0.0253  0.0882
    1TYR     BB  861  -0.165   0.660   2.818  0.1493  0.3643 -0.0706
    1TYR    SC1  862   0.026   0.619   3.051 -0.0541 -0.0974 -0.1990
    1TYR    SC2  863   0.138   0.777   3.239 -0.2535  0.0433 -0.1945
    1TYR    SC3  864   0.035   0.538   3.308 -0.0558 -0.0402 -0.1807
    2GLU     BB  865  -0.141   0.741   2.480 -0.4004  0.3351 -0.1059
    2GLU    SC1  866  -0.363   1.067   2.399  0.2310  0.0819 -0.0415
    3TYR     BB  867   0.198   0.753   2.398  0.0275  0.3378 -0.3489
    3TYR    SC1  868   0.242   0.549   2.185  0.2332  0.0006  0.3261
    3TYR    SC2  869   0.294   0.297   2.104  0.0777  0.0545  0.0458
    3TYR    SC3  870   0.160   0.467   1.942 -0.0117  0.2521  0.3175
    1TYR     BB  871   2.648  -0.111   2.786 -0.0957  0.3117 -0.0528
    1TYR    SC1  872   2.939  -0.167   2.918 -0.0458 -0.4790 -0.1095
    1TYR    SC2  873   3.202  -0.189   2.862  0.0205  0.1576 -0.1367
    1TYR    SC3  874   3.115   0.010   3.022 -0.4353 -0.1483  0.0168
    2GLU     BB  875   2.503   0.083   2.594 -0.0283  0.0105 -0.2249
    2GLU    SC1  876   2.346  -0.184   2.372  0.2715  0.0331  0.3609
    3TYR     BB  877   2.418   0.395   2.562 -0.0185 -0.2832 -0.4744
    3TYR    SC1  878   2.320   0.364   2.241 -0.1207  0.0573  0.0042
    3TYR    SC2  879   2.163   0.424   2.030 -0.2611 -0.2350  0.0191
    3TYR    SC3  880   2.363   0.245   2.002  0.1307  0.1845 -0.0183
    1TYR     BB  881   3.502   0.875   3.971 -0.0333  0.0387 -0.0316
    1TYR    SC1  882   3.329   0.635   3.935 -0.2552  0.1981 -0.2165
    1TYR    SC2  883   3.290   0.409   3.793 -0.0539  0.1225 -0.1556
    1TYR    SC3  884   3.172   0.440   4.033 -0.0410  0.0592 -0.1410
    2GLU     BB  885   3.790   0.844   4.051 -0.0861  0.1382  0.2288
    2GLU    SC1  886   4.034   0.568   4.200 -0.1744 -0.2268  0.1205
    3TYR     BB  887   4.018   0.940   3.790  0.1230 -0.0046 -0.0292
    3TYR    SC1  888   3.878   1.153   3.574  0.0743 -0.1872 -0.0599
    3TYR    SC2  889   3.910   1.331   3.374 -0.4023 -0.1085 -0.0817
    3TYR    SC3  890   3.767   1.105   3.332  0.2540 -0.5602 -0.0780
    1TYR     BB  891   0.995   1.128   2.165 -0.0832 -0.0445 -0.0968
    1TYR    SC1  892   0.697   1.214   2.219  0.1118 -0.0511 -0.1111
    1TYR    SC2  893   0.534   1.088   2.393  0.1625 -0.0299 -0.0476
    1TYR    SC3  894   0.548   1.357   2.393  0.0718 -0.0241 -0.1670
    2GLU     BB  895   0.968   0.812   2.104 -0.1582  0.1151  0.0158
    2GLU    SC1  896   1.273   0.723   2.260  0.2576  0.1799  0.1574
    3TYR     BB  897   0.708   0.674   2.015 -0.0600 -0.2217  0.2806
    3TYR    SC1  898   0.530   0.810   1.791  0.0265 -0.1224 -0.5261
    3TYR    SC2  899   0.408   0.967   1.609 -0.0364 -0.1421 -0.5015
    3TYR    SC3  900   0.379   0.699   1.596 -0.2118 -0.1332 -0.3414
    1TYR     BB  901   0.335  -0.556   2.518  0.0463 -0.0439 -0.1182
    1TYR    SC1  902   0.138  -0.348   2.600  0.0876 -0.1964  0.3189
    1TYR    SC2  903  -0.131  -0.351   2.617  0.0317  0.0650 -0.2544
    1TYR    SC3  904   0.013  -0.194   2.783 -0.1470 -0.1658  0.1378
    2GLU     BB  905   0.678  -0.536   2.526 -0.2266 -0.3771 -0.0867
    2GLU    SC1  906   0.867  -0.877   2.701  0.0146  0.0682  0.0887
    3TYR     BB  907   0.940  -0.274   2.524  0.2094  0.3119  0.1391
    3TYR    SC1  908   0.747  -0.032   2.467 -0.1709 -0.1521  0.1107
    3TYR    SC2  909   0.477  -0.010   2.457 -0.1540  0.0314 -0.0101
    3TYR    SC3  910   0.630   0.212   2.470  0.0000 -0.0610 -0.1919
    1TYR     BB  911   1.769   1.219   3.174 -0.4447 -0.1009 -0.5182
    1TYR    SC1  912   1.831   1.003   3.386 -0.2562 -0.1903 -0.0580
    1TYR    SC2  913   1.964   0.771   3.420 -0.0180 -0.0421  0.0528
    1TYR    SC3  914   1.846   0.891   3.631 -0.2346 -0.1135 -0.0241
    2GLU     BB  915   1.879   1.442   3.107 -0.0502 -0.0774 -0.3325
    2GLU    SC1  916   2.301   1.444   3.135  0.0012 -0.1684  0.0010
    3TYR     BB  917   1.912   1.669   2.923  0.2069 -0.0676  0.1290
    3TYR    SC1  918   2.098   1.725   2.699  0.1227 -0.2438  0.1371
    3TYR    SC2  919   2.363   1.696   2.658  0.0670 -0.3147 -0.2123
    3TYR    SC3  920   2.205   1.788   2.459 -0.1619 -0.1973  0.0169
    1TYR     BB  921   4.973   6.448   3.179 -0.2093 -0.1894 -0.0888
    1TYR    SC1  922   4.759   6.704   3.108  0.0179  0.0829  0.1501
    1TYR    SC2  923   4.651   6.842   2.903  0.0927 -0.0504  0.0190
    1TYR    SC3  924   4.556   6.877   3.153  0.0089  0.1226 -0.0347
    2GLU     BB  925   5.215   6.452   3.299 -0.3016 -0.1475 -0.0476
    2GLU    SC1  926   5.394   6.488   2.968 -0.1064 -0.1954 -0.0841
    3TYR     BB  927   5.354   6.275   3.507  0.1299  0.0144 -0.2673
    3TYR    SC1  928   5.149   6.081   3.591 -0.2443  0.0531 -0.3941
    3TYR    SC2  929   5.010   5.987   3.802 -0.0515  0.0645 -0.2580
    3TYR    SC3  930   4.928   5.931   3.551 -0.4749  0.3239 -0.1914
    1TYR     BB  931   1.868   2.187   3.852 -0.0960 -0.0755 -0.0952
    1TYR    SC1  932   2.027   2.289   3.609 -0.0985 -0.0184 -0.0705
    1TYR    SC2  933   2.293   2.287   3.561  0.0059  0.5171  0.3606
    1TYR    SC3  934   2.122   2.362   3.367  0.1583  0.1849  0.0837
    2GLU     BB  935   1.910   2.193   4.150 -0.1500 -0.1325  0.0833
    2GLU    SC1  936   1.747   2.535   4.219 -0.1151 -0.3357 -0.0046
    3TYR     BB  937   2.098   2.205   4.372 -0.0372  0.0538 -0.2842
    3TYR    SC1  938   1.936   2.265   4.634 -0.1375 -0.0336 -0.0857
    3TYR    SC2  939   1.777   2.399   4.806 -0.0591 -0.3542  0.2525
    3TYR    SC3  940   2.012   2.296   4.891  0.2252 -0.1001 -0.1774
    1TYR     BB  941   2.030   0.915   2.046  0.0608 -0.2397 -0.3511
    1TYR    SC1  942   2.018   0.797   2.333  0.0188  0.3131 -0.0874
    1TYR    SC2  943   2.051   0.775   2.600  0.1497 -0.0275 -0.1249
    1TYR    SC3  944   1.813   0.714   2.488  0.1024  0.0906 -0.0901
    2GLU     BB  945   1.918   1.205   1.966  0.1641  0.2321  0.1653
    2GLU    SC1  946   1.906   1.135   1.635  0.2058 -0.1408 -0.0938
    3TYR     BB  947   1.960   1.450   2.064 -0.1232 -0.0434  0.0655
    3TYR    SC1  948   1.800   1.615   2.252 -0.2925 -0.1581  0.1420
    3TYR    SC2  949   1.668   1.652   2.484  0.0239 -0.0240  0.3082
    3TYR    SC3  950   1.744   1.865   2.337  0.0258 -0.1008  0.1966
    1TYR     BB  951   5.921   5.462   3.860 -0.1574 -0.0695  0.2201
    1TYR    SC1  952   5.902   5.154   3.873  0.1446  0.1270 -0.2932
    1TYR    SC2  953   5.846   4.919   3.993 -0.2205  0.1072 -0.4833
    1TYR    SC3  954   6.002   4.924   3.772  0.2124  0.1121 -0.1935
    2GLU     BB  955   5.828   5.540   3.577  0.0983 -0.3731  0.0925
    2GLU    SC1  956   5.975   5.243   3.369  0.3465  0.0367  0.0963
    3TYR     BB  957   5.572   5.722   3.504  0.0656  0.0023 -0.0081
    3TYR    SC1  958   5.715   5.960   3.330 -0.0890 -0.2205 -0.1451
    3TYR    SC2  959   5.785   6.202   3.233 -0.1299 -0.0329  0.2639
    3TYR    SC3  960   5.631   6.036   3.085 -0.0442  0.1568 -0.0513
    1TYR     BB  961   2.947   6.741   4.009 -0.0758  0.2474 -0.3073
    1TYR    SC1  962   2.808   6.814   4.288  0.0299 -0.0745  0.0920
    1TYR    SC2  963   2.824   6.703   4.534  0.1120  0.1156  0.1742
    1TYR    SC3  964   2.843   6.971   4.504 -0.1249  0.1159 -0.0169
    2GLU     BB  965   2.854   6.851   3.791  0.0414  0.0346  0.1651
    2GLU    SC1  966   3.120   7.114   3.716 -0.0152  0.2018 -0.0712
    3TYR     BB  967   2.711   6.739   3.474 -0.0637  0.0534  0.1099
    3TYR    SC1  968   2.854   6.933   3.296  0.0083 -0.2980 -0.1565
    3TYR    SC2  969   2.924   7.010   3.047 -0.0260 -0.2583 -0.1539
    3TYR    SC3  970   2.837   7.193   3.225  0.1646 -0.2592 -0.0577
    1TYR     BB  971   5.682   8.384   5.694  0.2089 -0.0105  0.0739
    1TYR    SC1  972   5.532   8.565   5.474 -0.2154  0.0823  0.2009
    1TYR    SC2  973   5.389   8.544   5.246  0.0225 -0.2153  0.0700
    1TYR    SC3  974   5.547   8.759   5.286 -0.2648 -0.0025  0.1080
    2GLU     BB  975   5.447   8.227   5.798 -0.2489  0.1128 -0.2297
    2GLU    SC1  976   5.552   8.190   6.177  0.0325  0.0504 -0.1298
    3TYR     BB  977   5.404   7.945   5.751  0.2116 -0.2033  0.1629
    3TYR    SC1  978   5.137   7.753   5.734  0.1543  0.1282 -0.0718
    3TYR    SC2  979   4.901   7.696   5.852  0.2301  0.2395  0.1401
    3TYR    SC3  980   4.906   7.822   5.613  0.0757  0.1921  0.1109
    1TYR     BB  981   1.418   0.833   1.803  0.0152  0.1005  0.1854
    1TYR    SC1  982   1.662   0.677   1.716  0.2495  0.2172  0.0154
    1TYR    SC2  983   1.831   0.466   1.723  0.0189  0.0307  0.1538
    1TYR    SC3  984   1.743   0.561   1.486  0.2026  0.0383  0.0867
    2GLU     BB  985   1.392   1.132   1.812 -0.2920  0.1987  0.3609
    2GLU    SC1  986   1.406   1.188   1.417  0.0375  0.1716  0.1641
    3TYR     BB  987   1.438   1.369   1.949  0.1726 -0.2279 -0.1268
    3TYR    SC1  988   1.591   1.549   1.776 -0.1892  0.2678  0.0569
    3TYR    SC2  989   1.717   1.788   1.775  0.2348  0.0559  0.0442
    3TYR    SC3  990   1.675   1.657   1.543  0.0967  0.0683  0.0610
    1TYR     BB  991   6.538   6.037   5.182  0.0235  0.1693  0.2282
    1TYR    SC1  992   6.494   6.283   5.353 -0.3457  0.1275 -0.4746
    1TYR    SC2  993   6.393   6.488   5.498 -0.1503 -0.0420 -0.0797
    1TYR    SC3  994   6.562   6.537   5.293 -0.1143  0.1927  0.0026
    2GLU     BB  995   6.656   6.226   4.870  0.0972  0.1135  0.1834
    2GLU    SC1  996   6.930   6.490   4.947 -0.1159 -0.1132 -0.0367
    3TYR     BB  997   6.486   6.507   4.796  0.2821 -0.0601  0.0298
    3TYR    SC1  998   6.614   6.778   4.712  0.1152  0.1673  0.0268
    3TYR    SC2  999   6.778   6.930   4.561 -0.3506  0.3565 -0.3181
    3TYR    SC3 1000   6.532   7.019   4.625 -0.3446  0.0720  0.1647
   7.64293   7.64293   7.64293
