Generated by trjconv : Martini system from ../2_Creating_coordinates/TYR-ALA-TYR_aa.pdb t=   0.00000
  558
    1TYR     BB    1   1.272   4.453   3.911 -0.1154  0.2922 -0.0610
    1TYR    SC1    2   1.129   4.684   4.086  0.1036  0.2406 -0.0961
    1TYR    SC2    3   0.883   4.794   4.107  0.0040  0.0052  0.0209
    1TYR    SC3    4   1.070   4.845   4.295 -0.0280  0.0067  0.0524
    2ALA     BB    5   1.088   4.310   3.711  0.0138  0.1756  0.0798
    3TYR     BB    6   1.088   4.293   3.405  0.2868 -0.1060 -0.0978
    3TYR    SC1    7   1.340   4.288   3.284  0.0608  0.3782 -0.2403
    3TYR    SC2    8   1.477   4.443   3.110  0.3760  0.2947 -0.0768
    3TYR    SC3    9   1.594   4.362   3.339  0.2505 -0.2440 -0.1869
    1TYR     BB   10   3.364   6.743   5.120 -0.0637  0.0459 -0.1267
    1TYR    SC1   11   3.202   7.003   5.207  0.3032 -0.0654  0.0194
    1TYR    SC2   12   2.966   7.102   5.290  0.2352 -0.3504  0.1821
    1TYR    SC3   13   3.111   7.236   5.107 -0.1075 -0.2289 -0.0133
    2ALA     BB   14   3.365   6.522   5.096 -0.0296  0.3883 -0.1672
    3TYR     BB   15   3.536   6.215   5.185  0.0378 -0.2159 -0.0075
    3TYR    SC1   16   3.667   5.988   5.035  0.4281 -0.0533  0.2760
    3TYR    SC2   17   3.823   5.792   4.935  0.1048 -0.1738 -0.0182
    3TYR    SC3   18   3.584   5.844   4.822 -0.0635  0.0206  0.4034
    1TYR     BB   19   3.398   6.154   3.919  0.1986 -0.1499 -0.1567
    1TYR    SC1   20   3.535   5.940   3.736  0.1821 -0.0046  0.0232
    1TYR    SC2   21   3.694   5.726   3.692  0.0232 -0.1284  0.0380
    1TYR    SC3   22   3.743   5.960   3.565  0.1226 -0.2102 -0.0771
    2ALA     BB   23   3.311   6.207   4.118 -0.0219  0.3851 -0.1193
    3TYR     BB   24   3.030   6.432   4.211  0.1937  0.0360  0.3548
    3TYR    SC1   25   3.134   6.692   4.146 -0.4246  0.1801 -0.0860
    3TYR    SC2   26   3.089   6.957   4.169 -0.2216  0.2269 -0.2001
    3TYR    SC3   27   3.301   6.868   4.028 -0.0653  0.0130  0.1524
    1TYR     BB   28   2.364   7.252   4.469 -0.0792  0.0624 -0.0286
    1TYR    SC1   29   2.300   7.041   4.683  0.0645 -0.0222 -0.0299
    1TYR    SC2   30   2.319   6.773   4.716  0.0924 -0.0066  0.0863
    1TYR    SC3   31   2.146   6.916   4.867  0.2155  0.0658  0.1608
    2ALA     BB   32   2.575   7.260   4.165 -0.0028  0.1753 -0.0759
    3TYR     BB   33   2.396   7.316   3.850 -0.0000  0.0054 -0.0660
    3TYR    SC1   34   2.149   7.399   3.954  0.0122 -0.1712 -0.0726
    3TYR    SC2   35   2.032   7.505   4.173  0.2430  0.1999 -0.1170
    3TYR    SC3   36   1.880   7.408   3.972  0.0277  0.0045  0.1305
    1TYR     BB   37   1.925   5.709   5.761 -0.2702  0.0354  0.0688
    1TYR    SC1   38   2.129   5.858   5.910  0.4574 -0.1441 -0.0009
    1TYR    SC2   39   2.241   5.941   6.141  0.1611  0.0694  0.0744
    1TYR    SC3   40   2.295   6.071   5.910  0.0575  0.1834  0.1134
    2ALA     BB   41   1.612   5.583   5.702  0.0977 -0.0603 -0.2745
    3TYR     BB   42   1.544   5.320   5.781  0.2006 -0.2032  0.0733
    3TYR    SC1   43   1.267   5.177   5.745 -0.1624  0.0694  0.3869
    3TYR    SC2   44   1.016   5.179   5.646  0.0467  0.1384 -0.1892
    3TYR    SC3   45   1.069   5.048   5.876 -0.4481 -0.1666 -0.2301
    1TYR     BB   46   1.736   5.923   4.774 -0.1906 -0.1821  0.1061
    1TYR    SC1   47   2.039   5.878   4.755  0.0220  0.1641  0.0872
    1TYR    SC2   48   2.267   5.733   4.759 -0.1136 -0.0538  0.0918
    1TYR    SC3   49   2.272   5.990   4.678  0.1621 -0.0027  0.2570
    2ALA     BB   50   1.588   6.229   4.766 -0.0392  0.2572  0.0275
    3TYR     BB   51   1.392   6.328   4.533  0.0923 -0.0246 -0.1119
    3TYR    SC1   52   1.561   6.410   4.263  0.0178 -0.0780 -0.0263
    3TYR    SC2   53   1.481   6.568   4.060 -0.1397 -0.1463 -0.0189
    3TYR    SC3   54   1.736   6.480   4.069  0.0119  0.2717  0.0857
    1TYR     BB   55   2.917   3.722   3.969  0.0302  0.0678 -0.1156
    1TYR    SC1   56   3.186   3.698   4.155 -0.0307 -0.1568  0.0803
    1TYR    SC2   57   3.437   3.790   4.118 -0.0655 -0.0557  0.0904
    1TYR    SC3   58   3.379   3.642   4.336 -0.0690  0.1272  0.2170
    2ALA     BB   59   2.961   4.015   3.905 -0.2015  0.2279  0.4044
    3TYR     BB   60   2.816   4.262   3.749 -0.0367 -0.2218 -0.2814
    3TYR    SC1   61   2.796   4.262   3.469  0.3449  0.2986 -0.0184
    3TYR    SC2   62   2.671   4.373   3.257 -0.1450  0.0791  0.1361
    3TYR    SC3   63   2.711   4.106   3.265 -0.0029  0.1024  0.2625
    1TYR     BB   64   3.559   5.480   4.474  0.0276  0.1466  0.1594
    1TYR    SC1   65   3.433   5.189   4.320  0.0812  0.2806 -0.1478
    1TYR    SC2   66   3.488   5.099   4.071  0.2411  0.2974 -0.1203
    1TYR    SC3   67   3.303   4.973   4.223  0.2194  0.2227 -0.2075
    2ALA     BB   68   3.774   5.461   4.579  0.1286  0.1101 -0.1826
    3TYR     BB   69   4.005   5.387   4.712 -0.1289 -0.2007  0.1842
    3TYR    SC1   70   4.084   5.130   4.914 -0.3858 -0.1776 -0.2174
    3TYR    SC2   71   4.184   5.095   5.163 -0.0967  0.1289 -0.2820
    3TYR    SC3   72   4.073   4.887   5.031 -0.1694 -0.0595  0.0634
    1TYR     BB   73   2.013   4.208   4.902  0.1760 -0.1266  0.1985
    1TYR    SC1   74   2.145   3.962   4.894  0.5559  0.3129  0.4080
    1TYR    SC2   75   2.333   3.825   4.757 -0.0470 -0.0334 -0.1499
    1TYR    SC3   76   2.239   3.728   4.991  0.0126 -0.2070 -0.1958
    2ALA     BB   77   1.706   4.137   4.787 -0.4259 -0.0842  0.0283
    3TYR     BB   78   1.563   4.290   4.680 -0.0192 -0.1691  0.0255
    3TYR    SC1   79   1.536   4.525   4.455  0.3636  0.0411  0.0086
    3TYR    SC2   80   1.698   4.742   4.458  0.1195  0.2337 -0.1782
    3TYR    SC3   81   1.536   4.697   4.247  0.4409 -0.3489 -0.3286
    1TYR     BB   82   2.056   3.938   4.157  0.0707 -0.0066 -0.3083
    1TYR    SC1   83   2.263   3.737   4.256 -0.1542 -0.1576 -0.0891
    1TYR    SC2   84   2.488   3.588   4.271 -0.1916 -0.2687 -0.4852
    1TYR    SC3   85   2.263   3.504   4.393 -0.0123 -0.1240 -0.0297
    2ALA     BB   86   2.029   4.150   4.401  0.1043 -0.5170  0.2214
    3TYR     BB   87   2.041   4.426   4.421  0.1361  0.0435 -0.1521
    3TYR    SC1   88   2.115   4.586   4.164  0.2194  0.1018 -0.1236
    3TYR    SC2   89   1.958   4.753   4.020 -0.0090  0.0558  0.0640
    3TYR    SC3   90   2.216   4.713   3.948 -0.0229  0.2912 -0.1306
    1TYR     BB   91   2.461   5.843   2.996 -0.1313 -0.1289  0.1760
    1TYR    SC1   92   2.708   5.965   2.873 -0.2115  0.2844 -0.2983
    1TYR    SC2   93   2.801   6.182   2.742 -0.2091  0.4140 -0.0878
    1TYR    SC3   94   2.971   6.027   2.884 -0.2157  0.2885 -0.2136
    2ALA     BB   95   2.371   5.730   3.219 -0.0948 -0.0581  0.4467
    3TYR     BB   96   2.076   5.724   3.301  0.1125 -0.0833 -0.0041
    3TYR    SC1   97   1.987   5.445   3.292 -0.1402 -0.0974  0.0523
    3TYR    SC2   98   2.038   5.183   3.252 -0.0356 -0.1101  0.2523
    3TYR    SC3   99   1.801   5.260   3.358 -0.0486 -0.1273  0.2359
    1TYR     BB  100   3.282   4.250   4.978  0.2268  0.2604 -0.6169
    1TYR    SC1  101   3.326   3.949   4.905  0.0054 -0.0851 -0.1326
    1TYR    SC2  102   3.318   3.699   4.804  0.3917 -0.1082 -0.1221
    1TYR    SC3  103   3.457   3.749   5.031  0.6266  0.1750 -0.3194
    2ALA     BB  104   3.011   4.370   4.984 -0.1361 -0.0693  0.2495
    3TYR     BB  105   2.908   4.535   4.798  0.2204 -0.1477  0.0128
    3TYR    SC1  106   2.792   4.822   4.828  0.0631  0.1784 -0.0314
    3TYR    SC2  107   2.593   4.987   4.908  0.0565  0.1461  0.0197
    3TYR    SC3  108   2.845   5.026   4.997  0.0010 -0.0535  0.2807
    1TYR     BB  109   3.276   4.774   5.097  0.0172 -0.2560  0.3605
    1TYR    SC1  110   3.544   4.646   5.098 -0.0394 -0.3099 -0.0630
    1TYR    SC2  111   3.765   4.561   5.228 -0.0508 -0.2838 -0.0263
    1TYR    SC3  112   3.761   4.567   4.958  0.0358 -0.1736 -0.0263
    2ALA     BB  113   3.291   5.017   5.322 -0.0916 -0.1088 -0.1613
    3TYR     BB  114   3.165   5.152   5.426  0.0203 -0.1314  0.0018
    3TYR    SC1  115   3.073   5.445   5.442 -0.0588  0.0667  0.3753
    3TYR    SC2  116   2.995   5.631   5.621 -0.0646  0.0671  0.3724
    3TYR    SC3  117   2.901   5.639   5.368  0.4671  0.4842  0.1631
    1TYR     BB  118   2.166   7.595   5.098 -0.1254 -0.2632 -0.0455
    1TYR    SC1  119   2.392   7.376   5.093 -0.2015  0.0556 -0.0548
    1TYR    SC2  120   2.591   7.276   4.941 -0.0074  0.1692  0.1188
    1TYR    SC3  121   2.461   7.116   5.115  0.2291  0.1861  0.3178
    2ALA     BB  122   1.977   7.435   4.783 -0.0725  0.1016  0.4290
    3TYR     BB  123   1.785   7.288   4.617 -0.1884 -0.2166  0.1333
    3TYR    SC1  124   1.736   6.989   4.629 -0.2527  0.1872 -0.0728
    3TYR    SC2  125   1.664   6.735   4.571  0.4709  0.0322 -0.4246
    3TYR    SC3  126   1.720   6.805   4.826 -0.5240  0.0966 -0.1740
    1TYR     BB  127   1.527   5.226   4.782 -0.0123  0.3728  0.1748
    1TYR    SC1  128   1.843   5.214   4.787 -0.0966  0.1511 -0.2543
    1TYR    SC2  129   2.107   5.200   4.840 -0.1790  0.0375  0.1674
    1TYR    SC3  130   1.984   5.440   4.832 -0.0717  0.0890 -0.0060
    2ALA     BB  131   1.409   5.197   4.517  0.1586  0.0313 -0.3068
    3TYR     BB  132   1.473   5.216   4.254  0.3391  0.1312 -0.0846
    3TYR    SC1  133   1.190   5.225   4.105  0.1440 -0.4040 -0.0503
    3TYR    SC2  134   0.938   5.296   4.039  0.2465  0.0938  0.0433
    3TYR    SC3  135   1.088   5.155   3.865 -0.0007  0.0334 -0.1283
    1TYR     BB  136   1.563   6.027   6.078  0.1088  0.0820  0.0064
    1TYR    SC1  137   1.400   5.974   5.809  0.0577 -0.0485  0.0159
    1TYR    SC2  138   1.468   6.040   5.556  0.0464 -0.3299 -0.0649
    1TYR    SC3  139   1.211   6.058   5.636  0.0027 -0.5013 -0.1608
    2ALA     BB  140   1.664   5.805   6.230  0.2379 -0.0342  0.0477
    3TYR     BB  141   1.759   5.534   6.216 -0.4240 -0.3997 -0.1062
    3TYR    SC1  142   2.093   5.500   6.276  0.0638  0.0480 -0.1302
    3TYR    SC2  143   2.318   5.589   6.396 -0.0354 -0.1599  0.2263
    3TYR    SC3  144   2.332   5.475   6.152  0.1830  0.1984  0.0611
    1TYR     BB  145   2.203   6.930   4.160  0.3252  0.0168 -0.0669
    1TYR    SC1  146   2.442   6.773   4.291  0.3033 -0.1636  0.1262
    1TYR    SC2  147   2.597   6.583   4.405  0.2549 -0.0326  0.4219
    1TYR    SC3  148   2.706   6.817   4.326  0.2772 -0.0998  0.2466
    2ALA     BB  149   1.933   6.992   4.196 -0.1488 -0.0357  0.1738
    3TYR     BB  150   1.605   7.007   4.185  0.1722 -0.2431  0.2360
    3TYR    SC1  151   1.370   6.974   4.332  0.0434 -0.0668 -0.0157
    3TYR    SC2  152   1.245   6.779   4.471 -0.1623 -0.0211 -0.1313
    3TYR    SC3  153   1.265   7.027   4.575  0.1795 -0.1189  0.0557
    1TYR     BB  154   2.975   5.855   3.988 -0.2366 -0.0951 -0.0343
    1TYR    SC1  155   3.225   5.733   4.078  0.0851 -0.0141  0.2365
    1TYR    SC2  156   3.287   5.479   4.009  0.1111  0.1423 -0.3893
    1TYR    SC3  157   3.484   5.659   4.055  0.0970  0.0237  0.2481
    2ALA     BB  158   2.915   6.110   3.807 -0.1003  0.0771  0.2916
    3TYR     BB  159   2.679   6.269   3.852  0.0846  0.0091  0.0632
    3TYR    SC1  160   2.664   6.607   3.911 -0.0888 -0.1981 -0.1767
    3TYR    SC2  161   2.535   6.838   3.857 -0.0640 -0.1769 -0.1456
    3TYR    SC3  162   2.801   6.839   3.901 -0.1170 -0.1565  0.2131
    1TYR     BB  163   1.846   4.407   2.629  0.0277  0.1565 -0.3869
    1TYR    SC1  164   1.553   4.470   2.561 -0.1977  0.0957 -0.1573
    1TYR    SC2  165   1.317   4.366   2.640 -0.3034  0.1663 -0.3692
    1TYR    SC3  166   1.323   4.555   2.448 -0.0928  0.3539 -0.1853
    2ALA     BB  167   1.947   4.330   2.940  0.3350 -0.0046  0.1552
    3TYR     BB  168   2.184   4.392   3.236  0.2300 -0.1139  0.1220
    3TYR    SC1  169   2.005   4.600   3.405 -0.3176  0.1661  0.0563
    3TYR    SC2  170   1.796   4.768   3.378 -0.2296  0.2541 -0.0976
    3TYR    SC3  171   1.995   4.826   3.552 -0.2372  0.2697 -0.0942
    1TYR     BB  172   3.269   5.814   6.069  0.0851 -0.2884 -0.1487
    1TYR    SC1  173   3.179   5.883   6.390  0.1812 -0.0768 -0.0074
    1TYR    SC2  174   3.236   5.788   6.636 -0.1693  0.0213  0.1183
    1TYR    SC3  175   3.212   6.054   6.596  0.0782  0.0191 -0.0693
    2ALA     BB  176   3.279   5.569   5.978 -0.1772  0.1229 -0.0205
    3TYR     BB  177   3.340   5.315   5.950 -0.2925  0.2486  0.0771
    3TYR    SC1  178   3.234   5.039   5.935 -0.0337  0.2332 -0.2868
    3TYR    SC2  179   3.329   4.805   5.839 -0.0579 -0.1167  0.4596
    3TYR    SC3  180   3.063   4.841   5.867 -0.0764  0.1504  0.0417
    1TYR     BB  181   2.881   6.607   5.122  0.0326  0.2639  0.0794
    1TYR    SC1  182   2.800   6.665   5.409 -0.3426 -0.6915 -0.2235
    1TYR    SC2  183   2.741   6.610   5.667  0.3297 -0.1659  0.0839
    1TYR    SC3  184   2.726   6.864   5.576 -0.2721 -0.3861 -0.5420
    2ALA     BB  185   2.769   6.740   4.951 -0.1051 -0.0249  0.1085
    3TYR     BB  186   2.892   6.942   4.766  0.1059  0.3478  0.0508
    3TYR    SC1  187   3.183   6.887   4.701 -0.2083 -0.0090 -0.0843
    3TYR    SC2  188   3.365   6.828   4.510  0.2071 -0.4964  0.4191
    3TYR    SC3  189   3.423   7.011   4.699 -0.3365  0.2462 -0.0645
    1TYR     BB  190   2.329   6.007   4.187  0.1545  0.1008 -0.0410
    1TYR    SC1  191   2.228   6.247   3.998 -0.0697  0.0236  0.1300
    1TYR    SC2  192   2.231   6.496   3.894 -0.2364 -0.0337 -0.0177
    1TYR    SC3  193   2.221   6.282   3.730  0.0001 -0.1429  0.1052
    2ALA     BB  194   2.615   6.101   4.274  0.2527 -0.1168  0.1762
    3TYR     BB  195   2.758   6.095   4.508  0.1498 -0.2450  0.0750
    3TYR    SC1  196   2.983   5.889   4.542  0.0419 -0.1567 -0.0041
    3TYR    SC2  197   3.089   5.649   4.477  0.0236 -0.1687  0.0103
    3TYR    SC3  198   3.251   5.856   4.539  0.0459 -0.1216 -0.1963
    1TYR     BB  199   1.991   5.879   2.820  0.1456 -0.2235 -0.1676
    1TYR    SC1  200   1.945   6.185   2.818 -0.0161  0.0039 -0.0716
    1TYR    SC2  201   1.790   6.405   2.841 -0.0091 -0.0124  0.1661
    1TYR    SC3  202   2.002   6.406   2.673  0.0371  0.1893  0.2218
    2ALA     BB  203   1.661   5.780   2.845 -0.2662 -0.1809 -0.1733
    3TYR     BB  204   1.390   5.844   2.885 -0.2941  0.0062  0.1972
    3TYR    SC1  205   1.147   5.656   2.982 -0.1302  0.1515 -0.0127
    3TYR    SC2  206   0.983   5.463   2.890 -0.0274 -0.0669  0.2446
    3TYR    SC3  207   0.916   5.603   3.110 -0.0840  0.1727  0.0801
    1TYR     BB  208   2.011   6.341   4.984 -0.2729 -0.0957  0.2162
    1TYR    SC1  209   2.030   6.411   4.668 -0.2291 -0.2615 -0.2032
    1TYR    SC2  210   2.022   6.555   4.440 -0.1477 -0.0466 -0.0735
    1TYR    SC3  211   2.225   6.383   4.484 -0.1303 -0.0421 -0.1359
    2ALA     BB  212   1.974   6.143   5.143 -0.2984  0.0280 -0.1946
    3TYR     BB  213   2.029   6.079   5.429  0.2811  0.0897 -0.1757
    3TYR    SC1  214   1.961   6.254   5.651  0.1271  0.0001 -0.2023
    3TYR    SC2  215   1.997   6.499   5.759 -0.0339  0.0531 -0.2646
    3TYR    SC3  216   1.759   6.375   5.783  0.0208 -0.0622 -0.3052
    1TYR     BB  217   3.601   6.410   4.726 -0.2527  0.1641  0.0397
    1TYR    SC1  218   3.876   6.291   4.774  0.0075 -0.3810 -0.0484
    1TYR    SC2  219   4.042   6.265   4.985 -0.0055  0.0701  0.0313
    1TYR    SC3  220   4.140   6.255   4.734  0.0360 -0.2946  0.0546
    2ALA     BB  221   3.341   6.327   4.629 -0.2306 -0.2236  0.1287
    3TYR     BB  222   3.079   6.416   4.747  0.2910  0.4041  0.0357
    3TYR    SC1  223   3.027   6.176   4.961 -0.0919 -0.1729 -0.3705
    3TYR    SC2  224   3.178   5.953   4.968  0.2272  0.0260  0.3992
    3TYR    SC3  225   2.919   5.944   5.045  0.0110 -0.1816 -0.2606
    1TYR     BB  226   2.582   4.842   5.782 -0.1018  0.0561 -0.3249
    1TYR    SC1  227   2.545   4.999   5.506 -0.0008 -0.2453 -0.2282
    1TYR    SC2  228   2.431   5.102   5.285  0.0872  0.3328 -0.0251
    1TYR    SC3  229   2.662   5.205   5.377  0.1504 -0.0227  0.2382
    2ALA     BB  230   2.620   4.525   5.720  0.2856  0.2953  0.1006
    3TYR     BB  231   2.592   4.264   5.721  0.0590  0.1164 -0.0276
    3TYR    SC1  232   2.407   4.134   5.471  0.0524  0.2474  0.0693
    3TYR    SC2  233   2.212   4.046   5.307  0.1519  0.0095  0.0733
    3TYR    SC3  234   2.453   4.114   5.206  0.1596  0.0240  0.1015
    1TYR     BB  235   2.582   4.842   3.006 -0.0185  0.3575 -0.0708
    1TYR    SC1  236   2.495   4.592   2.855  0.4156 -0.1058  0.1249
    1TYR    SC2  237   2.454   4.325   2.847  0.0225 -0.0535  0.1129
    1TYR    SC3  238   2.335   4.486   2.665  0.1600  0.1433  0.1919
    2ALA     BB  239   2.913   4.758   3.015  0.3598  0.0250  0.1878
    3TYR     BB  240   3.170   4.658   2.978  0.1512 -0.0460 -0.0501
    3TYR    SC1  241   3.409   4.805   3.061  0.0615 -0.0289  0.0937
    3TYR    SC2  242   3.536   5.037   3.115  0.1710 -0.0950  0.1245
    3TYR    SC3  243   3.594   4.816   3.258  0.0256 -0.1282  0.1336
    1TYR     BB  244   1.983   5.099   4.320 -0.0041 -0.1405  0.2082
    1TYR    SC1  245   1.943   5.406   4.318  0.1975  0.0970  0.2390
    1TYR    SC2  246   1.767   5.569   4.443  0.1072 -0.0442  0.2986
    1TYR    SC3  247   2.004   5.666   4.357 -0.1272  0.2303 -0.0728
    2ALA     BB  248   2.217   4.966   4.449  0.2484  0.1550  0.1072
    3TYR     BB  249   2.492   4.816   4.372  0.0928  0.2195 -0.3087
    3TYR    SC1  250   2.717   5.014   4.446  0.0569  0.0068 -0.0471
    3TYR    SC2  251   2.822   5.246   4.535  0.0726  0.0355 -0.1394
    3TYR    SC3  252   2.983   5.035   4.489  0.0907  0.0780 -0.2757
    1TYR     BB  253   2.793   3.936   4.901  0.1088  0.1112 -0.2198
    1TYR    SC1  254   2.775   3.686   4.692 -0.0330  0.2435 -0.2363
    1TYR    SC2  255   2.850   3.454   4.575  0.0879  0.1431  0.0298
    1TYR    SC3  256   2.630   3.461   4.731  0.0488  0.2243 -0.0280
    2ALA     BB  257   2.941   3.812   5.210 -0.1948  0.0061  0.0747
    3TYR     BB  258   2.935   4.057   5.403  0.0831  0.0325 -0.1908
    3TYR    SC1  259   3.282   4.039   5.464  0.2975 -0.2603 -0.3517
    3TYR    SC2  260   3.471   4.231   5.479  0.2024 -0.1852  0.0858
    3TYR    SC3  261   3.443   4.053   5.680 -0.5003  0.1135  0.2901
    1TYR     BB  262   2.313   4.970   2.452  0.0516 -0.1858 -0.1314
    1TYR    SC1  263   2.591   4.876   2.514 -0.0374 -0.2254  0.4643
    1TYR    SC2  264   2.717   4.669   2.395 -0.0349  0.0334 -0.0165
    1TYR    SC3  265   2.852   4.829   2.566  0.1269 -0.0226 -0.0897
    2ALA     BB  266   2.146   4.962   2.725 -0.2208  0.1498 -0.2530
    3TYR     BB  267   2.040   4.816   2.954 -0.0808  0.4345  0.1627
    3TYR    SC1  268   1.756   4.871   2.969  0.0159  0.1459 -0.1399
    3TYR    SC2  269   1.505   4.877   3.069 -0.0012 -0.1879 -0.1488
    3TYR    SC3  270   1.545   4.834   2.805  0.0580  0.2782 -0.2257
    1TYR     BB  271   2.560   3.762   3.656  0.1477 -0.1101 -0.2164
    1TYR    SC1  272   2.393   3.570   3.787 -0.3335 -0.2174 -0.2846
    1TYR    SC2  273   2.324   3.355   3.936 -0.1947  0.1223  0.3122
    1TYR    SC3  274   2.140   3.478   3.781 -0.3475 -0.2407  0.1940
    2ALA     BB  275   2.355   4.043   3.719  0.2413  0.1948 -0.1935
    3TYR     BB  276   2.296   4.225   3.746 -0.0714 -0.2701 -0.0705
    3TYR    SC1  277   1.962   4.331   3.840 -0.2532 -0.2151 -0.1044
    3TYR    SC2  278   1.734   4.438   3.743 -0.1360  0.1248 -0.0209
    3TYR    SC3  279   1.749   4.363   4.002 -0.0687  0.3782  0.0528
    1TYR     BB  280   2.816   5.277   2.775 -0.2655  0.0668 -0.0982
    1TYR    SC1  281   2.868   5.314   2.463  0.2807 -0.3152  0.3203
    1TYR    SC2  282   3.004   5.317   2.230  0.0967 -0.1434  0.2103
    1TYR    SC3  283   2.750   5.226   2.237 -0.0154  0.1611  0.2712
    2ALA     BB  284   2.505   5.314   2.760 -0.1669  0.0071 -0.3611
    3TYR     BB  285   2.246   5.437   2.847  0.1123  0.1651  0.2780
    3TYR    SC1  286   2.059   5.419   2.581  0.1365 -0.2116 -0.3197
    3TYR    SC2  287   1.815   5.356   2.484  0.0480 -0.2738 -0.0669
    3TYR    SC3  288   1.984   5.508   2.338 -0.2245 -0.0455 -0.1570
    1TYR     BB  289   1.522   5.706   3.379  0.1800 -0.1830  0.0405
    1TYR    SC1  290   1.246   5.840   3.425 -0.3396 -0.2343 -0.1714
    1TYR    SC2  291   1.049   5.742   3.581 -0.3027 -0.0464 -0.0025
    1TYR    SC3  292   1.106   6.006   3.586  0.0090 -0.1097  0.0153
    2ALA     BB  293   1.714   5.838   3.568  0.0561 -0.2015 -0.0670
    3TYR     BB  294   1.901   5.932   3.782  0.3112  0.1010 -0.1426
    3TYR    SC1  295   1.812   6.009   4.064  0.1659 -0.1767  0.1565
    3TYR    SC2  296   1.632   5.971   4.262 -0.2120  0.4959 -0.0218
    3TYR    SC3  297   1.866   6.095   4.315  0.1212 -0.1570  0.1595
    1TYR     BB  298   0.617   5.425   3.608 -0.1690 -0.2199  0.4940
    1TYR    SC1  299   0.513   5.277   3.826  0.1182 -0.2665  0.1033
    1TYR    SC2  300   0.545   5.077   4.004  0.0931 -0.2321  0.1466
    1TYR    SC3  301   0.332   5.243   4.023  0.2055 -0.0927  0.2168
    2ALA     BB  302   0.587   5.669   3.471 -0.0342  0.2938  0.0667
    3TYR     BB  303   0.569   5.922   3.302  0.0254 -0.0767  0.2160
    3TYR    SC1  304   0.787   6.022   3.118 -0.0985  0.0022 -0.2538
    3TYR    SC2  305   1.037   6.124   3.130 -0.1434  0.0870  0.1105
    3TYR    SC3  306   0.935   6.043   2.893  0.2668 -0.0540 -0.0289
    1TYR     BB  307   2.604   6.235   3.379 -0.1659  0.1058  0.1040
    1TYR    SC1  308   2.485   6.315   3.096  0.0081  0.0002 -0.1718
    1TYR    SC2  309   2.403   6.360   2.843 -0.3669  0.1828 -0.0279
    1TYR    SC3  310   2.483   6.566   2.997  0.1273  0.0411 -0.0740
    2ALA     BB  311   2.903   6.176   3.316  0.0317 -0.2101  0.0152
    3TYR     BB  312   3.179   6.066   3.392  0.0887 -0.1186 -0.0934
    3TYR    SC1  313   3.421   6.214   3.269 -0.1554  0.1820 -0.0979
    3TYR    SC2  314   3.592   6.420   3.240 -0.0018  0.0885  0.1070
    3TYR    SC3  315   3.639   6.187   3.112 -0.0580  0.1095  0.0471
    1TYR     BB  316   0.863   5.120   3.201  0.0974  0.1053 -0.0794
    1TYR    SC1  317   0.919   4.843   3.137  0.2055 -0.0168  0.0637
    1TYR    SC2  318   1.093   4.659   3.042  0.0676 -0.1237  0.0139
    1TYR    SC3  319   0.850   4.582   3.132  0.1330 -0.0056  0.3065
    2ALA     BB  320   1.093   5.230   3.395  0.1736 -0.0495 -0.0756
    3TYR     BB  321   1.350   5.269   3.402  0.0682  0.0042  0.3532
    3TYR    SC1  322   1.453   5.316   3.119 -0.3178  0.4868  0.1574
    3TYR    SC2  323   1.351   5.235   2.883  0.0493  0.0487  0.1327
    3TYR    SC3  324   1.610   5.310   2.899  0.1409 -0.2968  0.4535
    1TYR     BB  325   1.545   6.415   5.272  0.0900 -0.0547 -0.2799
    1TYR    SC1  326   1.386   6.570   5.068  0.0447  0.0465  0.2188
    1TYR    SC2  327   1.320   6.812   4.968 -0.0112 -0.1105 -0.1455
    1TYR    SC3  328   1.166   6.598   4.914  0.0505 -0.2363  0.1532
    2ALA     BB  329   1.809   6.669   5.304  0.3834  0.0500  0.2474
    3TYR     BB  330   1.863   6.922   5.250 -0.2133  0.1358  0.0573
    3TYR    SC1  331   1.632   7.086   5.154 -0.1508 -0.0324  0.0127
    3TYR    SC2  332   1.497   7.219   4.962  0.2352 -0.1554 -0.3630
    3TYR    SC3  333   1.612   7.355   5.165 -0.3441 -0.0405 -0.0855
    1TYR     BB  334   3.129   4.557   5.475 -0.0437 -0.0666 -0.0202
    1TYR    SC1  335   3.086   4.392   5.744 -0.0804 -0.1012  0.0920
    1TYR    SC2  336   3.246   4.394   5.962  0.3284 -0.0187 -0.1941
    1TYR    SC3  337   3.086   4.182   5.914 -0.0752  0.1246  0.3823
    2ALA     BB  338   2.856   4.701   5.338 -0.1982 -0.0409 -0.0435
    3TYR     BB  339   2.676   4.567   5.257  0.2048 -0.1075  0.0909
    3TYR    SC1  340   2.369   4.597   5.316 -0.1276  0.1126 -0.3074
    3TYR    SC2  341   2.117   4.501   5.291 -0.0906 -0.0976  0.0555
    3TYR    SC3  342   2.172   4.691   5.475  0.0975 -0.4030  0.3295
    1TYR     BB  343   0.494   6.301   3.996 -0.1807  0.0132  0.1821
    1TYR    SC1  344   0.452   6.614   4.042  0.0621 -0.1042 -0.0165
    1TYR    SC2  345   0.252   6.787   4.095 -0.1625 -0.2930 -0.2180
    1TYR    SC3  346   0.467   6.870   3.955 -0.0316 -0.0560  0.1050
    2ALA     BB  347   0.734   6.251   3.797 -0.1479  0.1331  0.1130
    3TYR     BB  348   0.706   6.381   3.525  0.1371  0.0396 -0.1414
    3TYR    SC1  349   0.665   6.688   3.548 -0.0377 -0.0100 -0.4378
    3TYR    SC2  350   0.798   6.923   3.556 -0.1763  0.0893  0.5805
    3TYR    SC3  351   0.552   6.911   3.445  0.1140  0.2097 -0.1473
    1TYR     BB  352   3.657   4.048   4.589 -0.1578  0.0379 -0.2248
    1TYR    SC1  353   3.803   4.116   4.845 -0.3635 -0.4304  0.1246
    1TYR    SC2  354   3.730   4.112   5.104 -0.1640  0.2102  0.2104
    1TYR    SC3  355   3.988   4.155   5.037 -0.2341  0.1809 -0.0962
    2ALA     BB  356   3.547   4.364   4.522  0.0579  0.4183  0.2732
    3TYR     BB  357   3.353   4.562   4.553  0.0307 -0.0667  0.4273
    3TYR    SC1  358   3.515   4.820   4.607  0.0968  0.2581 -0.0705
    3TYR    SC2  359   3.548   5.041   4.758 -0.1075  0.1383  0.1581
    3TYR    SC3  360   3.761   4.927   4.639  0.0411  0.3011  0.2618
    1TYR     BB  361   3.282   4.436   3.429  0.1945  0.0113 -0.0971
    1TYR    SC1  362   3.560   4.501   3.633 -0.1838 -0.1095  0.1404
    1TYR    SC2  363   3.767   4.653   3.714 -0.1739 -0.0515  0.0082
    1TYR    SC3  364   3.734   4.406   3.816  0.1474 -0.1888 -0.2017
    2ALA     BB  365   3.132   4.655   3.516 -0.0252  0.0932 -0.0710
    3TYR     BB  366   3.211   4.899   3.736 -0.0139  0.1617  0.3179
    3TYR    SC1  367   3.514   5.002   3.652  0.1293 -0.5476  0.1572
    3TYR    SC2  368   3.579   5.264   3.654 -0.5794 -0.3428 -0.0114
    3TYR    SC3  369   3.769   5.079   3.607 -0.0195  0.1107  0.2958
    1TYR     BB  370   2.197   5.615   5.243 -0.2468 -0.2108  0.1498
    1TYR    SC1  371   1.864   5.628   5.266 -0.1360 -0.0351  0.1359
    1TYR    SC2  372   1.659   5.562   5.104 -0.0669 -0.2530  0.1326
    1TYR    SC3  373   1.640   5.778   5.265 -0.3085 -0.2851  0.1524
    2ALA     BB  374   2.354   5.564   5.440 -0.2094 -0.3678 -0.3628
    3TYR     BB  375   2.475   5.628   5.687  0.1499  0.0349 -0.0682
    3TYR    SC1  376   2.625   5.428   5.880 -0.0840  0.2210  0.3917
    3TYR    SC2  377   2.681   5.207   6.024 -0.1191  0.1556  0.3062
    3TYR    SC3  378   2.858   5.298   5.842 -0.2806 -0.0501  0.0359
    1TYR     BB  379   3.651   5.334   5.086  0.0701  0.0642 -0.1625
    1TYR    SC1  380   3.735   5.136   5.347 -0.0506 -0.3275 -0.0283
    1TYR    SC2  381   3.824   4.918   5.478 -0.2857 -0.2810  0.2214
    1TYR    SC3  382   3.730   5.129   5.617 -0.0633 -0.0151 -0.0152
    2ALA     BB  383   3.356   5.413   5.003  0.0139  0.2167  0.0372
    3TYR     BB  384   3.158   5.403   4.881 -0.0807  0.1823  0.1906
    3TYR    SC1  385   2.890   5.514   4.934 -0.2773 -0.1796  0.0059
    3TYR    SC2  386   2.689   5.627   4.794 -0.2267  0.1294  0.1715
    3TYR    SC3  387   2.637   5.499   5.026 -0.2416  0.1378  0.1728
    1TYR     BB  388   2.396   5.158   4.018  0.1643 -0.2188  0.1191
    1TYR    SC1  389   2.420   5.397   4.204  0.0036  0.2486 -0.1293
    1TYR    SC2  390   2.552   5.574   4.360  0.2293 -0.1656  0.1780
    1TYR    SC3  391   2.373   5.404   4.470  0.0104 -0.1328 -0.1108
    2ALA     BB  392   2.144   5.185   3.878  0.1991 -0.2246 -0.2439
    3TYR     BB  393   2.058   5.448   3.762 -0.0438  0.1653  0.1080
    3TYR    SC1  394   2.249   5.640   3.758 -0.1545  0.0292  0.0733
    3TYR    SC2  395   2.387   5.866   3.704 -0.0900  0.0552  0.3307
    3TYR    SC3  396   2.502   5.668   3.848  0.0423 -0.3703 -0.3057
    1TYR     BB  397   3.943   5.165   4.191  0.0520  0.0550 -0.2057
    1TYR    SC1  398   3.900   4.849   4.173  0.3454  0.0230 -0.3690
    1TYR    SC2  399   3.911   4.580   4.152  0.4014 -0.0112  0.0038
    1TYR    SC3  400   3.674   4.703   4.195  0.4162 -0.0334  0.1554
    2ALA     BB  401   3.913   5.365   4.049 -0.1396  0.0910 -0.1717
    3TYR     BB  402   4.049   5.700   4.017 -0.0371  0.1945  0.0137
    3TYR    SC1  403   3.918   5.822   4.227  0.0352 -0.0377  0.0142
    3TYR    SC2  404   3.729   6.004   4.295  0.1420  0.0581  0.0588
    3TYR    SC3  405   3.906   5.916   4.480  0.2603  0.1120 -0.0269
    1TYR     BB  406   2.822   5.973   5.943 -0.4349  0.1400 -0.0832
    1TYR    SC1  407   2.755   5.767   6.178 -0.1509 -0.0704 -0.1906
    1TYR    SC2  408   2.860   5.559   6.314  0.0613  0.0409 -0.1795
    1TYR    SC3  409   2.766   5.774   6.447  0.5173  0.2692 -0.2008
    2ALA     BB  410   2.962   6.247   6.000 -0.2780  0.3211 -0.1896
    3TYR     BB  411   3.209   6.395   6.078  0.3074  0.1862 -0.0240
    3TYR    SC1  412   3.464   6.253   6.250 -0.2475 -0.1095  0.0396
    3TYR    SC2  413   3.603   6.112   6.435 -0.1080  0.0253  0.0402
    3TYR    SC3  414   3.720   6.183   6.202 -0.2018  0.0738  0.0068
    1TYR     BB  415   2.443   5.775   2.515 -0.2184  0.0196 -0.1823
    1TYR    SC1  416   2.763   5.716   2.538  0.0684 -0.0513 -0.2991
    1TYR    SC2  417   3.030   5.756   2.550  0.0290  0.2290 -0.2560
    1TYR    SC3  418   2.903   5.767   2.312  0.0478  0.1448 -0.2704
    2ALA     BB  419   2.345   6.036   2.456  0.2208 -0.2660 -0.1272
    3TYR     BB  420   2.495   6.233   2.353 -0.0483 -0.0976 -0.1942
    3TYR    SC1  421   2.617   6.537   2.464  0.2126  0.2549 -0.1385
    3TYR    SC2  422   2.736   6.777   2.431  0.1124  0.3531  0.1713
    3TYR    SC3  423   2.774   6.638   2.659  0.0044  0.1685  0.0795
    1TYR     BB  424   1.299   4.934   5.289  0.2001 -0.1227 -0.0612
    1TYR    SC1  425   1.502   4.820   5.508 -0.4736 -0.0848 -0.1650
    1TYR    SC2  426   1.700   4.850   5.689 -0.3333  0.3732 -0.3752
    1TYR    SC3  427   1.679   4.620   5.549 -0.2995  0.1038  0.0387
    2ALA     BB  428   1.267   5.245   5.258  0.0389 -0.0108  0.1762
    3TYR     BB  429   1.241   5.565   5.394 -0.0534 -0.2025 -0.3514
    3TYR    SC1  430   0.985   5.684   5.339  0.1962  0.0645  0.1005
    3TYR    SC2  431   0.719   5.712   5.370  0.1670 -0.2473  0.1604
    3TYR    SC3  432   0.871   5.929   5.321 -0.0703 -0.0382  0.3133
    1TYR     BB  433   2.536   4.760   3.535 -0.0951 -0.2196  0.2156
    1TYR    SC1  434   2.417   5.091   3.454 -0.0692  0.0963 -0.2282
    1TYR    SC2  435   2.479   5.350   3.497 -0.1714  0.1043 -0.1218
    1TYR    SC3  436   2.518   5.240   3.253  0.4845  0.0406 -0.0104
    2ALA     BB  437   2.678   4.754   3.729 -0.0945 -0.0546  0.0414
    3TYR     BB  438   2.802   4.815   3.950  0.0803 -0.1545 -0.3585
    3TYR    SC1  439   2.907   5.133   3.995 -0.2184 -0.1347  0.0991
    3TYR    SC2  440   2.895   5.372   4.121 -0.0264  0.1146 -0.3286
    3TYR    SC3  441   2.807   5.349   3.867 -0.0850 -0.2879 -0.2803
    1TYR     BB  442   3.352   4.248   3.998 -0.0009  0.4831 -0.1012
    1TYR    SC1  443   3.427   4.084   3.730  0.3700 -0.0160  0.0205
    1TYR    SC2  444   3.564   4.024   3.505  0.0622  0.4295 -0.3064
    1TYR    SC3  445   3.315   3.925   3.542  0.2140  0.1333 -0.0162
    2ALA     BB  446   3.192   4.507   4.064 -0.0355 -0.0439  0.2058
    3TYR     BB  447   2.958   4.529   4.317 -0.2908  0.0874  0.1005
    3TYR    SC1  448   2.999   4.250   4.432 -0.0829  0.0504  0.2013
    3TYR    SC2  449   2.887   4.007   4.402 -0.1480  0.1057 -0.0224
    3TYR    SC3  450   3.133   4.029   4.511 -0.2082 -0.0446  0.1509
    1TYR     BB  451   1.948   3.991   3.464  0.5593  0.0280 -0.0129
    1TYR    SC1  452   1.736   3.945   3.187 -0.0377  0.2909  0.0592
    1TYR    SC2  453   1.555   3.937   2.986 -0.0823 -0.4244  0.0940
    1TYR    SC3  454   1.807   3.851   2.944  0.0652 -0.0806  0.2238
    2ALA     BB  455   1.791   3.883   3.682 -0.0512  0.2155  0.2547
    3TYR     BB  456   1.453   4.006   3.674 -0.1348  0.1789 -0.0296
    3TYR    SC1  457   1.421   3.985   3.977 -0.1289  0.1112 -0.0130
    3TYR    SC2  458   1.566   3.844   4.155  0.1584  0.1577 -0.2011
    3TYR    SC3  459   1.440   4.070   4.232 -0.2911 -0.1737  0.0990
    1TYR     BB  460   2.151   4.780   6.024  0.1093 -0.3078 -0.0214
    1TYR    SC1  461   2.031   4.542   5.876  0.0101  0.0980 -0.0995
    1TYR    SC2  462   2.059   4.308   5.744  0.1470 -0.1114  0.2805
    1TYR    SC3  463   1.845   4.348   5.904 -0.1098  0.2086 -0.1179
    2ALA     BB  464   2.085   5.038   5.946  0.2649  0.1050 -0.2006
    3TYR     BB  465   2.071   5.275   5.724 -0.3487  0.0226 -0.0446
    3TYR    SC1  466   1.981   5.198   5.437 -0.0774  0.3627 -0.2326
    3TYR    SC2  467   1.965   5.001   5.252 -0.2295  0.4021 -0.2631
    3TYR    SC3  468   1.761   5.176   5.281 -0.3636  0.1927  0.1738
    1TYR     BB  469   2.844   5.607   3.202  0.0644  0.0673 -0.0761
    1TYR    SC1  470   3.070   5.599   3.029 -0.1228  0.1355 -0.3484
    1TYR    SC2  471   3.271   5.467   2.906 -0.0783  0.0428 -0.1813
    1TYR    SC3  472   3.317   5.708   3.017 -0.0269 -0.0318 -0.0383
    2ALA     BB  473   2.892   5.722   3.512  0.0452  0.0115 -0.0152
    3TYR     BB  474   3.166   5.569   3.543  0.1178 -0.1182  0.0344
    3TYR    SC1  475   3.146   5.306   3.400 -0.2092  0.3668 -0.5059
    3TYR    SC2  476   3.087   5.144   3.192 -0.1876 -0.1096 -0.1628
    3TYR    SC3  477   2.935   5.138   3.415  0.0711  0.0256  0.0241
    1TYR     BB  478   1.255   5.623   4.834  0.2700 -0.0594  0.2091
    1TYR    SC1  479   1.245   5.903   4.940 -0.0986  0.0266 -0.0420
    1TYR    SC2  480   1.281   6.020   5.181  0.2241 -0.1262 -0.0092
    1TYR    SC3  481   1.147   6.150   4.986  0.0484  0.0410  0.2168
    2ALA     BB  482   1.266   5.640   4.505  0.1755 -0.0198 -0.1413
    3TYR     BB  483   1.145   5.711   4.293  0.0493  0.1131 -0.0015
    3TYR    SC1  484   1.221   5.980   4.150  0.0081 -0.1373 -0.2240
    3TYR    SC2  485   1.125   6.231   4.123  0.0918 -0.0868 -0.0675
    3TYR    SC3  486   1.337   6.151   3.977  0.0752 -0.0611 -0.1058
    1TYR     BB  487   0.977   6.682   3.969 -0.1411  0.3061  0.2654
    1TYR    SC1  488   0.961   6.983   3.969 -0.0686 -0.2961 -0.0470
    1TYR    SC2  489   0.845   7.226   3.952  0.1702 -0.1687  0.0898
    1TYR    SC3  490   1.112   7.206   3.988  0.1846 -0.4547 -0.1395
    2ALA     BB  491   1.107   6.564   3.733 -0.2097 -0.1106  0.3418
    3TYR     BB  492   1.206   6.488   3.473 -0.0544 -0.3417  0.0655
    3TYR    SC1  493   1.050   6.584   3.221 -0.2432 -0.0113  0.1334
    3TYR    SC2  494   0.996   6.566   2.957  0.1592  0.1833  0.0285
    3TYR    SC3  495   0.825   6.695   3.122 -0.3678 -0.3864 -0.0271
    1TYR     BB  496   0.855   5.994   4.550 -0.3484 -0.2021 -0.1851
    1TYR    SC1  497   0.801   5.809   4.778  0.3742  0.0494 -0.0688
    1TYR    SC2  498   0.816   5.624   4.974 -0.1544 -0.0713 -0.1226
    1TYR    SC3  499   0.585   5.758   4.932  0.1923  0.5742 -0.1255
    2ALA     BB  500   0.786   6.253   4.492  0.0008 -0.2751  0.0558
    3TYR     BB  501   0.874   6.523   4.526  0.0985  0.3184  0.1348
    3TYR    SC1  502   0.730   6.835   4.382 -0.2568 -0.2354 -0.0358
    3TYR    SC2  503   0.556   7.041   4.383 -0.1425 -0.1374  0.0622
    3TYR    SC3  504   0.821   7.089   4.391 -0.1169 -0.2902  0.1825
    1TYR     BB  505   3.509   6.086   5.755 -0.3026 -0.0631  0.1864
    1TYR    SC1  506   3.510   5.842   5.570  0.3380  0.0593  0.0361
    1TYR    SC2  507   3.503   5.575   5.531 -0.2126  0.0679 -0.0162
    1TYR    SC3  508   3.444   5.743   5.328 -0.1803  0.2198  0.0980
    2ALA     BB  509   3.696   6.270   5.719  0.1958  0.0600  0.1713
    3TYR     BB  510   3.710   6.545   5.566  0.0182 -0.0796  0.1478
    3TYR    SC1  511   3.443   6.704   5.604 -0.1230 -0.0337  0.2237
    3TYR    SC2  512   3.342   6.910   5.746 -0.3336  0.0730 -0.0693
    3TYR    SC3  513   3.176   6.746   5.610 -0.1360  0.0251 -0.2581
    1TYR     BB  514   0.957   5.232   4.733  0.0486  0.1809  0.1219
    1TYR    SC1  515   0.785   5.161   5.040 -0.3030  0.0247  0.1844
    1TYR    SC2  516   0.786   5.046   5.284  0.1107  0.0081  0.1849
    1TYR    SC3  517   0.698   5.299   5.255 -0.0225 -0.0190  0.3323
    2ALA     BB  518   0.906   5.358   4.487 -0.1209  0.0705 -0.2940
    3TYR     BB  519   0.690   5.530   4.463 -0.2938 -0.0443  0.0538
    3TYR    SC1  520   0.657   5.666   4.171  0.0221  0.0265 -0.1709
    3TYR    SC2  521   0.773   5.783   3.958 -0.0952  0.2200 -0.1315
    3TYR    SC3  522   0.504   5.769   3.973 -0.0845  0.0470 -0.0791
    1TYR     BB  523   2.531   6.270   4.943  0.1210 -0.0911  0.0368
    1TYR    SC1  524   2.423   6.459   5.145  0.1668  0.0393 -0.1203
    1TYR    SC2  525   2.332   6.500   5.396  0.1729 -0.1137 -0.0915
    1TYR    SC3  526   2.320   6.699   5.213  0.0843 -0.0298  0.0036
    2ALA     BB  527   2.469   5.998   5.170  0.4747  0.1996 -0.0995
    3TYR     BB  528   2.567   6.039   5.488 -0.1019  0.0533 -0.2323
    3TYR    SC1  529   2.865   6.126   5.462 -0.2306 -0.2998  0.1083
    3TYR    SC2  530   3.109   6.011   5.455 -0.1450 -0.1125 -0.1239
    3TYR    SC3  531   3.084   6.272   5.519 -0.3125 -0.1891  0.1447
    1TYR     BB  532   1.864   6.918   3.729 -0.0490 -0.0358  0.1850
    1TYR    SC1  533   2.167   6.853   3.602  0.1749 -0.0907  0.0657
    1TYR    SC2  534   2.352   6.671   3.526  0.2463 -0.0301  0.0928
    1TYR    SC3  535   2.361   6.922   3.427  0.2339 -0.0008  0.1654
    2ALA     BB  536   1.671   6.706   3.656 -0.0141 -0.1173  0.1741
    3TYR     BB  537   1.711   6.418   3.580  0.1766 -0.2574 -0.0196
    3TYR    SC1  538   1.923   6.389   3.411 -0.1818  0.1352 -0.0090
    3TYR    SC2  539   2.074   6.211   3.276  0.0631  0.3541 -0.0343
    3TYR    SC3  540   2.088   6.474   3.214 -0.3376  0.3814 -0.0386
    1TYR     BB  541   2.500   4.296   4.716  0.1574 -0.1544  0.2521
    1TYR    SC1  542   2.522   4.257   4.406  0.2730  0.0185 -0.0802
    1TYR    SC2  543   2.493   4.381   4.169  0.0572 -0.0444 -0.0895
    1TYR    SC3  544   2.524   4.113   4.178  0.1982 -0.0278 -0.0524
    2ALA     BB  545   2.354   4.523   4.810 -0.0766 -0.0585 -0.2735
    3TYR     BB  546   2.124   4.706   4.823  0.3666 -0.0709 -0.2684
    3TYR    SC1  547   1.816   4.652   4.880  0.0308  0.0576  0.1223
    3TYR    SC2  548   1.573   4.759   4.929  0.0232  0.0507  0.1000
    3TYR    SC3  549   1.677   4.576   5.098  0.0405  0.1003  0.1433
    1TYR     BB  550   1.338   4.730   3.558  0.2134 -0.0462  0.1978
    1TYR    SC1  551   1.014   4.765   3.612 -0.0318 -0.0707  0.3290
    1TYR    SC2  552   0.782   4.888   3.672 -0.0392  0.2407 -0.2451
    1TYR    SC3  553   0.780   4.654   3.538 -0.0127 -0.0044  0.1621
    2ALA     BB  554   1.517   4.925   3.751  0.2450 -0.0339 -0.2671
    3TYR     BB  555   1.670   5.148   3.788 -0.0281 -0.0366 -0.0283
    3TYR    SC1  556   1.559   5.420   3.826  0.2700 -0.0401  0.2388
    3TYR    SC2  557   1.553   5.626   4.000  0.1758 -0.0380  0.2334
    3TYR    SC3  558   1.333   5.564   3.856  0.2974  0.0589 -0.0009
   7.62311   7.62311   7.62311
