Generated by trjconv : Martini system from ../2_Creating_coordinates/TYR-CYS-TYR_aa.pdb t=   0.00000
  560
    1TYR     BB    1   4.867   4.476   4.067 -0.0835  0.0989  0.2037
    1TYR    SC1    2   4.869   4.417   3.754 -0.1869  0.1423 -0.0248
    1TYR    SC2    3   4.952   4.555   3.537  0.0941 -0.2521 -0.1826
    1TYR    SC3    4   4.688   4.517   3.580  0.0112  0.2501 -0.1733
    2CYS     BB    5   5.050   4.328   4.208 -0.3652  0.2290 -0.4228
    2CYS    SC1    6   5.085   4.242   4.510 -0.2251 -0.1017 -0.0739
    3TYR     BB    7   5.274   4.093   4.038  0.0399  0.1951 -0.2213
    3TYR    SC1    8   5.427   3.936   4.230  0.0086 -0.0604 -0.1785
    3TYR    SC2    9   5.516   3.939   4.485 -0.2680  0.1199 -0.0781
    3TYR    SC3   10   5.502   3.706   4.349 -0.2648 -0.0011  0.1250
    1TYR     BB   11   1.137   4.064   2.683 -0.2110  0.2068 -0.0135
    1TYR    SC1   12   0.998   4.226   2.856 -0.0528 -0.3051  0.0159
    1TYR    SC2   13   0.866   4.358   3.052 -0.0124 -0.2016 -0.0257
    1TYR    SC3   14   0.819   4.418   2.793  0.2753 -0.0043 -0.0379
    2CYS     BB   15   1.429   4.106   2.785 -0.0250  0.0600  0.1024
    2CYS    SC1   16   1.550   4.324   2.648 -0.0017 -0.1034 -0.0645
    3TYR     BB   17   1.686   4.077   3.086  0.0301 -0.0207  0.2743
    3TYR    SC1   18   1.926   4.172   2.995  0.0187  0.0875  0.1172
    3TYR    SC2   19   2.160   4.307   2.989  0.0525  0.0250 -0.0866
    3TYR    SC3   20   2.039   4.236   2.758 -0.1909  0.0926  0.0154
    1TYR     BB   21   2.106   3.350   3.021  0.0797  0.1225  0.4101
    1TYR    SC1   22   2.145   3.371   2.702 -0.1794  0.0047  0.0236
    1TYR    SC2   23   2.033   3.432   2.464  0.2064 -0.1034 -0.1964
    1TYR    SC3   24   2.301   3.442   2.493  0.1589  0.0875  0.2930
    2CYS     BB   25   1.996   2.923   2.879  0.1332 -0.0305 -0.1568
    2CYS    SC1   26   2.308   2.908   2.792  0.0420 -0.1766  0.2614
    3TYR     BB   27   1.681   2.749   2.765 -0.1380 -0.0294  0.0503
    3TYR    SC1   28   1.750   2.504   2.905 -0.3138 -0.1539 -0.0379
    3TYR    SC2   29   1.837   2.260   2.979 -0.1307 -0.0084  0.2517
    3TYR    SC3   30   1.667   2.396   3.139  0.0357  0.1909  0.2621
    1TYR     BB   31   1.150   3.355   4.765  0.2565 -0.2674 -0.1126
    1TYR    SC1   32   1.472   3.404   4.832  0.1389  0.2022  0.0647
    1TYR    SC2   33   1.741   3.419   4.825  0.1443  0.1398  0.1154
    1TYR    SC3   34   1.603   3.554   5.015  0.1642 -0.0993  0.3061
    2CYS     BB   35   1.129   3.737   4.821  0.2635  0.1092 -0.0440
    2CYS    SC1   36   1.038   3.841   4.560  0.4054 -0.0808 -0.1129
    3TYR     BB   37   1.183   3.897   5.102  0.0750 -0.0912  0.0486
    3TYR    SC1   38   1.194   4.192   5.027  0.1247  0.0057  0.2526
    3TYR    SC2   39   1.134   4.423   4.899  0.2382 -0.1291 -0.0568
    3TYR    SC3   40   1.376   4.392   5.014  0.1012  0.0302  0.2944
    1TYR     BB   41   5.622   4.298   2.950  0.2132  0.0208 -0.0208
    1TYR    SC1   42   5.453   4.544   3.063 -0.0390  0.1097  0.0162
    1TYR    SC2   43   5.401   4.803   3.004 -0.2197  0.1167  0.1918
    1TYR    SC3   44   5.439   4.728   3.260 -0.1311 -0.0261  0.1385
    2CYS     BB   45   5.679   4.000   3.019  0.1519 -0.2362 -0.0382
    2CYS    SC1   46   5.474   3.823   2.870  0.3431  0.1452 -0.0313
    3TYR     BB   47   5.997   3.948   3.157 -0.0976 -0.0291 -0.1574
    3TYR    SC1   48   6.154   3.761   2.945 -0.0465 -0.1013 -0.1495
    3TYR    SC2   49   6.314   3.549   2.896  0.2137  0.0240  0.1167
    3TYR    SC3   50   6.308   3.758   2.724  0.6899  0.2155  0.3110
    1TYR     BB   51   4.556   3.594   3.626  0.1334  0.0668 -0.1221
    1TYR    SC1   52   4.449   3.643   3.343  0.2793 -0.0313  0.0019
    1TYR    SC2   53   4.429   3.509   3.109 -0.2132 -0.1165  0.0791
    1TYR    SC3   54   4.435   3.780   3.110 -0.4296 -0.1079 -0.0298
    2CYS     BB   55   4.534   3.253   3.697  0.2486 -0.1452  0.0990
    2CYS    SC1   56   4.581   3.128   3.394 -0.2800 -0.1930 -0.0378
    3TYR     BB   57   4.395   3.249   3.950 -0.2103 -0.0676  0.0796
    3TYR    SC1   58   4.369   3.046   4.214  0.4111  0.1163  0.0558
    3TYR    SC2   59   4.369   2.948   4.467  0.3057  0.1202  0.0581
    3TYR    SC3   60   4.471   2.801   4.264 -0.2492 -0.2006 -0.0139
    1TYR     BB   61   7.671   4.876   4.480  0.0290 -0.1418  0.1600
    1TYR    SC1   62   7.390   4.998   4.382  0.1726 -0.1590 -0.3868
    1TYR    SC2   63   7.180   5.041   4.218 -0.0100  0.0849 -0.1022
    1TYR    SC3   64   7.149   5.066   4.485  0.4175  0.2796 -0.0613
    2CYS     BB   65   7.835   4.594   4.459  0.0804 -0.4567  0.2482
    2CYS    SC1   66   8.088   4.609   4.258  0.2020  0.0406 -0.2143
    3TYR     BB   67   7.867   4.322   4.584 -0.0555 -0.0669  0.0488
    3TYR    SC1   68   7.617   4.210   4.780 -0.0692  0.0494  0.0600
    3TYR    SC2   69   7.364   4.192   4.873 -0.0234 -0.2358  0.1409
    3TYR    SC3   70   7.569   4.219   5.046  0.0301 -0.3767  0.1014
    1TYR     BB   71   5.411   4.493   3.823 -0.0088 -0.1464  0.0214
    1TYR    SC1   72   5.535   4.486   4.119  0.2987 -0.1686  0.0511
    1TYR    SC2   73   5.686   4.582   4.321 -0.0466 -0.0484  0.2646
    1TYR    SC3   74   5.619   4.320   4.315  0.3316 -0.1499  0.0527
    2CYS     BB   75   5.474   4.287   3.598  0.0026 -0.1730 -0.4561
    2CYS    SC1   76   5.701   4.261   3.437 -0.0573  0.3644 -0.0106
    3TYR     BB   77   5.225   4.157   3.501 -0.0015 -0.1675  0.1939
    3TYR    SC1   78   5.176   4.153   3.200 -0.2300  0.0400  0.0529
    3TYR    SC2   79   5.106   4.278   2.971 -0.2495 -0.0079  0.0323
    3TYR    SC3   80   5.066   4.012   2.997  0.0113 -0.0554 -0.0151
    1TYR     BB   81   4.476   4.954   3.353  0.1744 -0.2221  0.1971
    1TYR    SC1   82   4.494   4.904   3.642  0.4341 -0.0646 -0.0332
    1TYR    SC2   83   4.442   5.069   3.848 -0.2980 -0.2679 -0.0217
    1TYR    SC3   84   4.621   4.870   3.878 -0.3768 -0.2862  0.4165
    2CYS     BB   85   4.235   4.608   3.308 -0.1287 -0.1237 -0.1477
    2CYS    SC1   86   4.321   4.571   3.036 -0.3206 -0.0634 -0.1041
    3TYR     BB   87   4.203   4.568   3.561  0.1570 -0.0540  0.2291
    3TYR    SC1   88   4.221   4.563   3.851 -0.1009  0.3342 -0.0638
    3TYR    SC2   89   4.138   4.508   4.101  0.1507 -0.2613 -0.0902
    3TYR    SC3   90   4.390   4.592   4.059  0.0171  0.1519 -0.1320
    1TYR     BB   91   3.095   4.007   3.521 -0.1154  0.1013 -0.0207
    1TYR    SC1   92   2.783   4.080   3.537  0.0868  0.3496 -0.2053
    1TYR    SC2   93   2.549   3.988   3.637  0.3776 -0.0632  0.1374
    1TYR    SC3   94   2.551   4.131   3.408 -0.2064 -0.0178  0.1440
    2CYS     BB   95   3.148   3.724   3.447  0.2360 -0.1851  0.0929
    2CYS    SC1   96   3.238   3.571   3.226  0.1353 -0.0574  0.0951
    3TYR     BB   97   3.007   3.495   3.712  0.0398 -0.2272  0.0181
    3TYR    SC1   98   2.818   3.681   3.875 -0.0060 -0.1334  0.0272
    3TYR    SC2   99   2.853   3.919   3.997 -0.1193  0.0845 -0.3438
    3TYR    SC3  100   2.623   3.783   4.033  0.2209 -0.3684  0.4845
    1TYR     BB  101   5.836   2.695   4.380 -0.0784 -0.0083 -0.0359
    1TYR    SC1  102   5.854   2.361   4.415 -0.2684 -0.0250 -0.0138
    1TYR    SC2  103   5.971   2.121   4.455  0.1572  0.1543 -0.1172
    1TYR    SC3  104   5.702   2.142   4.458  0.1115 -0.3082 -0.0482
    2CYS     BB  105   5.664   2.789   4.515  0.1093  0.0737 -0.2170
    2CYS    SC1  106   5.745   2.983   4.767 -0.2268 -0.0600  0.1664
    3TYR     BB  107   5.355   2.656   4.555 -0.0033  0.1974  0.3480
    3TYR    SC1  108   5.381   2.477   4.294 -0.1210 -0.0839 -0.1838
    3TYR    SC2  109   5.467   2.404   4.049 -0.0159  0.2614 -0.2578
    3TYR    SC3  110   5.278   2.258   4.176  0.0480 -0.0155 -0.4694
    1TYR     BB  111   3.896   4.250   3.264  0.0224 -0.0548  0.0583
    1TYR    SC1  112   3.769   4.423   3.017  0.0285  0.2043 -0.0668
    1TYR    SC2  113   3.516   4.493   2.955 -0.1042 -0.1884 -0.0045
    1TYR    SC3  114   3.701   4.473   2.760 -0.1015  0.1463 -0.0448
    2CYS     BB  115   3.866   3.901   3.357 -0.1279 -0.2856  0.0973
    2CYS    SC1  116   3.963   3.761   3.117  0.1271  0.3001  0.0634
    3TYR     BB  117   3.639   3.757   3.496  0.3258 -0.1691 -0.0027
    3TYR    SC1  118   3.585   3.510   3.627  0.4246  0.0552  0.2664
    3TYR    SC2  119   3.428   3.290   3.612  0.4228  0.0700 -0.0030
    3TYR    SC3  120   3.601   3.319   3.818  0.3646 -0.1420  0.0797
    1TYR     BB  121   6.320   2.492   3.555 -0.1146  0.4724  0.0932
    1TYR    SC1  122   6.373   2.495   3.849  0.0993  0.2026 -0.0888
    1TYR    SC2  123   6.521   2.607   4.044 -0.0314 -0.1741  0.2439
    1TYR    SC3  124   6.254   2.639   4.043 -0.0314 -0.1703  0.1207
    2CYS     BB  125   6.245   2.867   3.548  0.1260  0.1804 -0.1799
    2CYS    SC1  126   6.022   2.860   3.342 -0.0519 -0.3540  0.2017
    3TYR     BB  127   6.467   2.968   3.670 -0.0272  0.2990  0.0586
    3TYR    SC1  128   6.705   2.796   3.685 -0.6028 -0.1222  0.1987
    3TYR    SC2  129   6.942   2.726   3.794 -0.3184  0.2390 -0.1426
    3TYR    SC3  130   6.789   2.540   3.672 -0.1260  0.0330 -0.0779
    1TYR     BB  131   1.711   4.003   3.564 -0.0235  0.4770 -0.1042
    1TYR    SC1  132   1.683   3.952   3.894 -0.1141  0.0038  0.1766
    1TYR    SC2  133   1.642   3.975   4.161  0.0360 -0.0280  0.2033
    1TYR    SC3  134   1.741   3.746   4.058  0.4078  0.1363  0.1780
    2CYS     BB  135   1.835   4.256   3.536  0.2623  0.1073  0.1543
    2CYS    SC1  136   2.113   4.288   3.510 -0.2562  0.1993 -0.4339
    3TYR     BB  137   1.693   4.486   3.449 -0.1218  0.1119 -0.0501
    3TYR    SC1  138   1.852   4.598   3.203  0.0722 -0.1761 -0.1597
    3TYR    SC2  139   1.964   4.815   3.089  0.0625  0.1000  0.3189
    3TYR    SC3  140   1.865   4.617   2.934  0.0256  0.4517 -0.1367
    1TYR     BB  141   3.312   4.913   3.827 -0.0379  0.0397  0.2340
    1TYR    SC1  142   3.491   5.054   3.619  0.2014  0.0396 -0.2761
    1TYR    SC2  143   3.521   5.125   3.360  0.0440  0.2373 -0.2429
    1TYR    SC3  144   3.572   5.303   3.556  0.2870  0.0499 -0.1288
    2CYS     BB  145   3.038   4.697   3.779  0.2537 -0.0449  0.0536
    2CYS    SC1  146   3.115   4.435   3.755  0.2142  0.0174  0.1833
    3TYR     BB  147   2.849   4.750   3.558  0.0319  0.0405  0.0890
    3TYR    SC1  148   2.598   4.655   3.326 -0.1047 -0.2762  0.1354
    3TYR    SC2  149   2.542   4.497   3.114 -0.2316 -0.3401  0.2144
    3TYR    SC3  150   2.345   4.636   3.235 -0.1631 -0.3168  0.3010
    1TYR     BB  151   2.599   4.226   4.304 -0.0665  0.2195  0.0817
    1TYR    SC1  152   2.501   4.380   4.040  0.1215  0.0038  0.0111
    1TYR    SC2  153   2.516   4.419   3.773  0.2692  0.1877  0.0439
    1TYR    SC3  154   2.517   4.631   3.941  0.1489  0.0749  0.1906
    2CYS     BB  155   2.353   4.254   4.498 -0.1122  0.2756 -0.2279
    2CYS    SC1  156   2.235   4.014   4.631  0.0221 -0.0700 -0.0131
    3TYR     BB  157   2.350   4.480   4.782  0.0320  0.0460 -0.1802
    3TYR    SC1  158   2.213   4.668   4.598  0.1145 -0.2937 -0.1643
    3TYR    SC2  159   2.031   4.846   4.506  0.0170 -0.2103  0.1721
    3TYR    SC3  160   2.194   4.718   4.333  0.0641  0.1752 -0.0841
    1TYR     BB  161   3.457   3.785   4.015  0.2704  0.4346 -0.0160
    1TYR    SC1  162   3.634   3.818   4.315  0.3650  0.0397 -0.0826
    1TYR    SC2  163   3.611   3.913   4.567  0.1911 -0.2300  0.0090
    1TYR    SC3  164   3.824   3.762   4.499  0.2987 -0.0598 -0.0441
    2CYS     BB  165   3.537   4.097   3.905 -0.1647  0.3210 -0.1450
    2CYS    SC1  166   3.805   4.173   3.791 -0.0603  0.0462  0.1824
    3TYR     BB  167   3.564   4.271   4.164  0.2826 -0.1070  0.0016
    3TYR    SC1  168   3.827   4.243   4.270 -0.1111 -0.0938  0.1387
    3TYR    SC2  169   3.973   4.216   4.495 -0.0003 -0.2035  0.0544
    3TYR    SC3  170   4.052   4.095   4.267  0.0075  0.0825 -0.1014
    1TYR     BB  171   5.499   2.975   4.013  0.0090 -0.3966  0.0975
    1TYR    SC1  172   5.335   2.793   3.834 -0.0686 -0.0217 -0.0609
    1TYR    SC2  173   5.372   2.698   3.584  0.5323 -0.0933  0.0349
    1TYR    SC3  174   5.198   2.576   3.751 -0.0985  0.1233 -0.4145
    2CYS     BB  175   5.791   2.953   3.921  0.2484  0.1361  0.3072
    2CYS    SC1  176   5.849   2.689   3.760 -0.1646  0.0114  0.0687
    3TYR     BB  177   6.099   3.136   3.963 -0.3585 -0.1101  0.1430
    3TYR    SC1  178   6.223   3.014   4.270 -0.1112 -0.2205  0.0565
    3TYR    SC2  179   6.400   2.908   4.444 -0.1465 -0.0136  0.2245
    3TYR    SC3  180   6.186   3.045   4.536 -0.1306  0.1569  0.0178
    1TYR     BB  181   1.661   5.011   4.162 -0.1374 -0.1116  0.2138
    1TYR    SC1  182   1.581   4.906   3.932  0.5669 -0.5297  0.0134
    1TYR    SC2  183   1.637   4.916   3.668 -0.0089  0.3245 -0.1273
    1TYR    SC3  184   1.403   4.812   3.752  0.0947  0.2174  0.0343
    2CYS     BB  185   2.016   5.109   4.007  0.1688  0.0510 -0.0570
    2CYS    SC1  186   1.964   5.313   3.791  0.0143  0.3232 -0.1941
    3TYR     BB  187   2.394   5.183   4.082  0.1396 -0.1252 -0.1729
    3TYR    SC1  188   2.514   4.998   4.323 -0.0751 -0.0095  0.0460
    3TYR    SC2  189   2.649   4.766   4.345 -0.0339 -0.0034 -0.1189
    3TYR    SC3  190   2.607   4.919   4.563 -0.3126 -0.3008  0.0474
    1TYR     BB  191   6.855   3.719   4.501  0.0364  0.0482  0.1449
    1TYR    SC1  192   6.809   3.826   4.759  0.2940 -0.0828  0.0769
    1TYR    SC2  193   6.735   3.916   5.003 -0.0090  0.1721 -0.1022
    1TYR    SC3  194   6.996   3.879   4.948  0.0575 -0.0297  0.3048
    2CYS     BB  195   6.781   3.455   4.408  0.2253  0.2184 -0.3033
    2CYS    SC1  196   6.969   3.240   4.502 -0.0236  0.0246 -0.0949
    3TYR     BB  197   6.499   3.429   4.317  0.0301  0.1797 -0.0427
    3TYR    SC1  198   6.317   3.483   4.532 -0.1427  0.2261 -0.0161
    3TYR    SC2  199   6.245   3.676   4.706  0.0723 -0.0130  0.3542
    3TYR    SC3  200   6.197   3.416   4.764  0.2625 -0.1071  0.1127
    1TYR     BB  201   1.869   4.315   4.376  0.3768 -0.0002 -0.2444
    1TYR    SC1  202   1.823   4.486   4.610 -0.4469  0.1128 -0.2719
    1TYR    SC2  203   1.814   4.497   4.880  0.3183 -0.0708 -0.2076
    1TYR    SC3  204   1.656   4.661   4.732 -0.0469  0.1063  0.3362
    2CYS     BB  205   1.799   4.482   4.071 -0.1254  0.0866 -0.2577
    2CYS    SC1  206   1.542   4.407   3.984  0.0400 -0.0242  0.0536
    3TYR     BB  207   2.006   4.625   3.884  0.0124 -0.1820  0.3412
    3TYR    SC1  208   2.169   4.783   3.647 -0.2186  0.0636 -0.0105
    3TYR    SC2  209   2.158   4.970   3.452  0.1018 -0.0431 -0.1398
    3TYR    SC3  210   2.374   4.956   3.614 -0.0379 -0.1337  0.0433
    1TYR     BB  211   0.731   2.561   3.535  0.0935 -0.3001 -0.1370
    1TYR    SC1  212   0.965   2.401   3.403  0.0197  0.1233 -0.1340
    1TYR    SC2  213   0.994   2.244   3.186 -0.0022  0.0824 -0.1074
    1TYR    SC3  214   1.171   2.226   3.388 -0.1156 -0.0501 -0.0178
    2CYS     BB  215   0.804   2.872   3.769 -0.1954  0.1414 -0.0831
    2CYS    SC1  216   0.798   2.763   4.048 -0.0864  0.1478  0.0873
    3TYR     BB  217   0.903   3.108   3.697  0.3022 -0.2161  0.1364
    3TYR    SC1  218   0.974   3.290   3.969 -0.1699  0.1184 -0.0369
    3TYR    SC2  219   0.787   3.446   4.085 -0.1694 -0.1019  0.2743
    3TYR    SC3  220   1.023   3.401   4.210  0.1261  0.2124 -0.1338
    1TYR     BB  221   2.590   4.260   2.682 -0.0511  0.2971  0.2379
    1TYR    SC1  222   2.409   4.166   2.484  0.1744  0.0194 -0.1108
    1TYR    SC2  223   2.301   3.967   2.336  0.1641  0.0899 -0.1996
    1TYR    SC3  224   2.235   4.224   2.286  0.0707  0.1083  0.0053
    2CYS     BB  225   2.533   3.950   2.919  0.0689 -0.0182  0.3602
    2CYS    SC1  226   2.278   3.836   2.854 -0.1309  0.1545  0.1079
    3TYR     BB  227   2.811   3.950   3.017 -0.4045  0.1931 -0.2147
    3TYR    SC1  228   2.961   4.219   3.053  0.0257  0.0396  0.1295
    3TYR    SC2  229   3.026   4.407   3.237  0.1309  0.0535  0.0790
    3TYR    SC3  230   3.080   4.449   2.976  0.0125  0.0195  0.0485
    1TYR     BB  231   6.857   3.288   3.587  0.0429  0.1729 -0.0327
    1TYR    SC1  232   6.909   3.077   3.406  0.0715  0.1250  0.0382
    1TYR    SC2  233   7.006   2.846   3.307 -0.1492 -0.0704  0.2586
    1TYR    SC3  234   6.766   2.938   3.223  0.0750  0.2553 -0.0654
    2CYS     BB  235   6.981   3.270   3.874 -0.1329 -0.0419 -0.0939
    2CYS    SC1  236   6.789   3.090   4.029 -0.2718 -0.3547 -0.2731
    3TYR     BB  237   7.206   3.430   4.058 -0.0278  0.2761 -0.0740
    3TYR    SC1  238   7.355   3.176   4.188 -0.3380 -0.0799  0.2112
    3TYR    SC2  239   7.563   3.022   4.266 -0.1408  0.0445 -0.0456
    3TYR    SC3  240   7.313   2.918   4.257 -0.0895 -0.1182  0.2313
    1TYR     BB  241   6.833   4.698   4.491 -0.1810  0.2022 -0.1534
    1TYR    SC1  242   6.577   4.644   4.356  0.2154  0.1465  0.0597
    1TYR    SC2  243   6.400   4.654   4.152  0.1750 -0.1255  0.0763
    1TYR    SC3  244   6.442   4.422   4.284  0.4542 -0.0366  0.1554
    2CYS     BB  245   7.057   4.687   4.785  0.0769  0.0831  0.0742
    2CYS    SC1  246   6.948   4.516   5.024 -0.2530 -0.2220  0.0152
    3TYR     BB  247   7.305   4.643   4.732 -0.2589  0.0627 -0.0987
    3TYR    SC1  248   7.597   4.667   4.909 -0.0400  0.7907  0.1841
    3TYR    SC2  249   7.729   4.602   5.136  0.0764 -0.3402 -0.1339
    3TYR    SC3  250   7.860   4.725   4.935  0.1403  0.1042  0.1661
    1TYR     BB  251   2.924   3.164   3.369 -0.3554 -0.1024  0.0127
    1TYR    SC1  252   2.904   3.032   3.097  0.3681 -0.0937 -0.1366
    1TYR    SC2  253   3.016   3.053   2.852 -0.1679  0.0583 -0.3859
    1TYR    SC3  254   2.771   2.941   2.880 -0.1807  0.1750  0.0632
    2CYS     BB  255   2.593   3.081   3.486  0.4616  0.2341  0.0329
    2CYS    SC1  256   2.416   3.035   3.252 -0.2139 -0.0355  0.2136
    3TYR     BB  257   2.530   3.197   3.730 -0.2106 -0.0359 -0.0466
    3TYR    SC1  258   2.756   3.047   3.955 -0.2944 -0.4139 -0.1741
    3TYR    SC2  259   2.881   2.856   4.099  0.0358 -0.0988 -0.0235
    3TYR    SC3  260   3.003   2.966   3.885 -0.0213  0.1454  0.0656
    1TYR     BB  261   6.462   3.931   4.262 -0.4879  0.2816  0.0180
    1TYR    SC1  262   6.507   4.097   4.508 -0.1944  0.0593 -0.1311
    1TYR    SC2  263   6.605   4.250   4.707  0.2270 -0.1252 -0.1829
    1TYR    SC3  264   6.383   4.102   4.747  0.1094  0.1006  0.0318
    2CYS     BB  265   6.174   3.910   4.209 -0.2165 -0.1491  0.0748
    2CYS    SC1  266   5.984   4.061   4.391  0.0282  0.3261 -0.1495
    3TYR     BB  267   6.059   3.630   4.080  0.2675 -0.0648  0.1157
    3TYR    SC1  268   5.950   3.465   4.316 -0.0037  0.0389  0.2979
    3TYR    SC2  269   5.812   3.434   4.547 -0.1449 -0.2936  0.1774
    3TYR    SC3  270   5.764   3.270   4.338 -0.0984  0.0690 -0.1313
    1TYR     BB  271   7.364   4.587   3.680  0.1677  0.3970  0.2398
    1TYR    SC1  272   7.634   4.453   3.796 -0.1534  0.2232  0.1719
    1TYR    SC2  273   7.710   4.312   4.014  0.0336 -0.3139 -0.2130
    1TYR    SC3  274   7.896   4.434   3.860 -0.0889 -0.0135 -0.1317
    2CYS     BB  275   7.197   4.653   3.975 -0.0097  0.1024  0.1609
    2CYS    SC1  276   6.889   4.675   4.000 -0.1718 -0.0515 -0.1465
    3TYR     BB  277   7.328   4.525   4.247  0.2439 -0.2154 -0.1200
    3TYR    SC1  278   7.125   4.350   4.340 -0.0033  0.1816 -0.1382
    3TYR    SC2  279   6.898   4.226   4.261  0.0177  0.0378  0.0221
    3TYR    SC3  280   7.000   4.179   4.507  0.4641 -0.2471 -0.2004
    1TYR     BB  281   0.495   4.872   3.700  0.3350  0.0104  0.0363
    1TYR    SC1  282   0.244   4.931   3.546 -0.2171 -0.1896  0.2660
    1TYR    SC2  283   0.173   5.113   3.360  0.3852  0.1428  0.3268
    1TYR    SC3  284   0.022   5.080   3.581  0.1361  0.3961  0.2021
    2CYS     BB  285   0.710   4.957   3.560  0.0336 -0.1356 -0.0823
    2CYS    SC1  286   0.673   5.233   3.397 -0.0983  0.1429 -0.1959
    3TYR     BB  287   0.920   4.644   3.480  0.0470  0.2317  0.1288
    3TYR    SC1  288   1.195   4.626   3.330 -0.1017  0.3253 -0.0287
    3TYR    SC2  289   1.361   4.792   3.197  0.0850  0.1737  0.0101
    3TYR    SC3  290   1.322   4.540   3.109  0.0710  0.1287  0.1419
    1TYR     BB  291   6.608   4.245   3.843 -0.1131  0.0011 -0.0075
    1TYR    SC1  292   6.370   4.077   3.747  0.2522 -0.0248 -0.0329
    1TYR    SC2  293   6.164   4.137   3.582  0.3388  0.1587 -0.0782
    1TYR    SC3  294   6.219   3.880   3.642 -0.0299  0.1136  0.1000
    2CYS     BB  295   6.941   4.239   3.730  0.1870 -0.3071 -0.0930
    2CYS    SC1  296   6.951   4.300   3.461 -0.2064  0.2742  0.2208
    3TYR     BB  297   7.203   4.141   3.847 -0.0769 -0.0250 -0.0460
    3TYR    SC1  298   7.290   3.862   3.764 -0.1144 -0.1738 -0.0466
    3TYR    SC2  299   7.266   3.637   3.617 -0.2390 -0.0570 -0.2105
    3TYR    SC3  300   7.506   3.707   3.720 -0.1801 -0.2143 -0.2373
    1TYR     BB  301   5.028   2.856   4.199  0.1618  0.2223  0.1101
    1TYR    SC1  302   5.209   3.081   4.330  0.0647 -0.0548 -0.0247
    1TYR    SC2  303   5.347   3.303   4.398  0.2134 -0.1450 -0.0289
    1TYR    SC3  304   5.187   3.182   4.579 -0.2069  0.2063 -0.1473
    2CYS     BB  305   4.913   3.017   3.921 -0.1678 -0.0901 -0.0147
    2CYS    SC1  306   4.699   2.805   3.846  0.1466  0.1092  0.3197
    3TYR     BB  307   5.014   3.167   3.666 -0.0650 -0.0093 -0.0221
    3TYR    SC1  308   5.050   2.961   3.450 -0.0281  0.0379 -0.0036
    3TYR    SC2  309   5.190   2.933   3.221  0.2038  0.0233  0.1350
    3TYR    SC3  310   4.926   2.876   3.226  0.1735  0.1180 -0.1491
    1TYR     BB  311   7.049   3.358   4.968  0.1653 -0.2543  0.0563
    1TYR    SC1  312   7.266   3.480   4.806 -0.2627 -0.0858 -0.0670
    1TYR    SC2  313   7.399   3.487   4.572  0.1472  0.1474  0.1604
    1TYR    SC3  314   7.323   3.717   4.692 -0.2018  0.0255  0.1847
    2CYS     BB  315   6.702   3.406   4.948  0.4051  0.2462  0.0351
    2CYS    SC1  316   6.608   3.101   4.827 -0.0600  0.3913 -0.2553
    3TYR     BB  317   6.471   3.389   5.220  0.0236  0.2379 -0.0219
    3TYR    SC1  318   6.234   3.222   5.191  0.2322 -0.2302 -0.2979
    3TYR    SC2  319   6.140   3.001   5.067 -0.0464 -0.2495 -0.0658
    3TYR    SC3  320   6.045   3.071   5.310 -0.2059  0.3014 -0.2677
    1TYR     BB  321   1.840   2.670   4.050 -0.0750  0.0953  0.2235
    1TYR    SC1  322   2.160   2.711   4.092  0.0279  0.0968 -0.0975
    1TYR    SC2  323   2.318   2.905   4.196 -0.0160 -0.0133  0.1833
    1TYR    SC3  324   2.413   2.741   4.003 -0.0070  0.3388 -0.1260
    2CYS     BB  325   1.593   2.911   4.151  0.0441  0.2347 -0.0130
    2CYS    SC1  326   1.662   2.984   4.428  0.0074 -0.0181 -0.0679
    3TYR     BB  327   1.274   2.904   4.118 -0.0895 -0.1554  0.1969
    3TYR    SC1  328   1.138   2.845   4.399  0.3142 -0.0175  0.0014
    3TYR    SC2  329   0.914   2.827   4.549  0.1711 -0.3694 -0.2386
    3TYR    SC3  330   1.154   2.858   4.669  0.0240 -0.2525  0.0366
    1TYR     BB  331   0.182   2.937   4.757 -0.1526  0.2350  0.0477
    1TYR    SC1  332   0.481   2.933   4.893 -0.0275 -0.3470 -0.0832
    1TYR    SC2  333   0.691   2.769   4.939  0.0496 -0.2362 -0.0340
    1TYR    SC3  334   0.732   3.033   4.900 -0.0947 -0.1863  0.1386
    2CYS     BB  335   0.223   3.049   4.366  0.0757 -0.0096  0.1013
    2CYS    SC1  336   0.517   3.095   4.367  0.0480  0.3217 -0.1891
    3TYR     BB  337   0.037   3.213   4.268  0.0871 -0.0043 -0.2981
    3TYR    SC1  338  -0.130   3.461   4.335 -0.0037  0.1272  0.1883
    3TYR    SC2  339  -0.136   3.700   4.462 -0.0258  0.2944 -0.1172
    3TYR    SC3  340  -0.367   3.582   4.388 -0.0243  0.0913  0.1788
    1TYR     BB  341   1.967   3.260   4.064 -0.2216 -0.3107 -0.0884
    1TYR    SC1  342   1.994   3.131   3.824  0.0985 -0.0934  0.0961
    1TYR    SC2  343   2.059   3.185   3.568  0.0161 -0.1839  0.0549
    1TYR    SC3  344   2.106   2.940   3.671 -0.0581 -0.1832  0.0912
    2CYS     BB  345   2.151   3.438   4.270  0.2904 -0.3643  0.0967
    2CYS    SC1  346   2.412   3.379   4.179 -0.0139 -0.1263  0.2304
    3TYR     BB  347   1.990   3.614   4.462  0.1811 -0.1916 -0.0492
    3TYR    SC1  348   1.682   3.508   4.385  0.0579  0.1833  0.0386
    3TYR    SC2  349   1.479   3.677   4.440 -0.2314 -0.1147 -0.0728
    3TYR    SC3  350   1.429   3.442   4.319  0.2096 -0.1144 -0.2792
    1TYR     BB  351   8.073   3.863   2.836  0.1786  0.0105 -0.1027
    1TYR    SC1  352   7.797   3.841   2.686 -0.0131  0.2963 -0.2253
    1TYR    SC2  353   7.646   3.705   2.508 -0.0969 -0.1980  0.1940
    1TYR    SC3  354   7.529   3.882   2.675 -0.0499  0.1086 -0.0847
    2CYS     BB  355   7.980   3.809   3.178  0.0426  0.1074  0.0816
    2CYS    SC1  356   8.267   3.727   3.257 -0.3864  0.1807 -0.1243
    3TYR     BB  357   7.731   3.636   3.286  0.2650  0.0695  0.1889
    3TYR    SC1  358   7.751   3.384   3.043 -0.1111  0.0017  0.0132
    3TYR    SC2  359   7.726   3.358   2.775 -0.1436 -0.1406  0.0287
    3TYR    SC3  360   7.861   3.171   2.916 -0.0870 -0.0421  0.1066
    1TYR     BB  361   3.272   4.222   4.645 -0.1235 -0.0188 -0.1024
    1TYR    SC1  362   3.061   4.154   4.803  0.1317  0.1910  0.1332
    1TYR    SC2  363   2.929   3.928   4.866  0.1306  0.1224 -0.0989
    1TYR    SC3  364   2.793   4.142   4.772  0.1703  0.0921 -0.2265
    2CYS     BB  365   3.133   4.122   4.327 -0.1438 -0.0778  0.0485
    2CYS    SC1  366   3.141   3.832   4.381  0.4125  0.0714 -0.2177
    3TYR     BB  367   3.026   4.432   4.241  0.1438 -0.2374  0.1361
    3TYR    SC1  368   3.230   4.633   4.311 -0.0020  0.0185 -0.1840
    3TYR    SC2  369   3.458   4.772   4.277 -0.0254  0.0510 -0.2080
    3TYR    SC3  370   3.241   4.894   4.381  0.0899 -0.0833  0.2139
    1TYR     BB  371   7.342   5.097   3.797  0.3828 -0.4167  0.0288
    1TYR    SC1  372   7.082   5.033   3.702 -0.1424  0.1262  0.1185
    1TYR    SC2  373   6.967   4.834   3.563  0.3270  0.0876 -0.2487
    1TYR    SC3  374   6.863   5.083   3.552  0.0520 -0.0215 -0.2303
    2CYS     BB  375   7.627   5.026   3.733 -0.0947  0.1078  0.0617
    2CYS    SC1  376   7.688   4.868   4.004 -0.3422  0.0902  0.1442
    3TYR     BB  377   7.722   4.871   3.486  0.0160 -0.0547 -0.2290
    3TYR    SC1  378   7.691   4.976   3.177  0.6086 -0.1857  0.0186
    3TYR    SC2  379   7.676   4.851   2.939 -0.0499 -0.2522  0.0735
    3TYR    SC3  380   7.681   5.120   2.948 -0.0033 -0.2492 -0.0160
    1TYR     BB  381   0.509   4.417   3.381 -0.1030 -0.1427 -0.0438
    1TYR    SC1  382   0.473   4.620   3.191  0.6193  0.2026 -0.1423
    1TYR    SC2  383   0.448   4.877   3.113  0.1389  0.1303 -0.2644
    1TYR    SC3  384   0.445   4.679   2.930 -0.3937 -0.0053 -0.1319
    2CYS     BB  385   0.407   4.153   3.176  0.2231 -0.1554 -0.1237
    2CYS    SC1  386   0.326   3.959   3.383  0.1817 -0.1567  0.0463
    3TYR     BB  387   0.403   4.127   2.916 -0.1768  0.2056 -0.2909
    3TYR    SC1  388   0.635   3.980   2.726 -0.0497 -0.0289  0.0346
    3TYR    SC2  389   0.775   3.779   2.611 -0.0911 -0.0585  0.0354
    3TYR    SC3  390   0.689   3.987   2.463  0.3055  0.1685  0.1040
    1TYR     BB  391   0.253   2.657   3.999 -0.3133  0.5568 -0.2462
    1TYR    SC1  392   0.365   2.546   4.245  0.1945 -0.3168 -0.0348
    1TYR    SC2  393   0.603   2.459   4.335  0.2875  0.0948  0.1526
    1TYR    SC3  394   0.458   2.629   4.484 -0.1436 -0.1646  0.0514
    2CYS     BB  395   0.300   2.928   3.835 -0.1415  0.2460  0.1226
    2CYS    SC1  396   0.332   2.803   3.538  0.2777 -0.2809  0.1279
    3TYR     BB  397   0.413   3.181   3.851 -0.2993 -0.1360 -0.1417
    3TYR    SC1  398   0.350   3.439   3.783  0.0151  0.1028  0.1699
    3TYR    SC2  399   0.472   3.679   3.773 -0.0356  0.1236 -0.0232
    3TYR    SC3  400   0.204   3.665   3.797 -0.0568  0.0934 -0.2566
    1TYR     BB  401   1.240   3.301   3.317 -0.0378  0.1133  0.1104
    1TYR    SC1  402   1.133   3.513   3.475 -0.0556 -0.0824  0.1993
    1TYR    SC2  403   1.008   3.646   3.674 -0.1672 -0.2077  0.2143
    1TYR    SC3  404   1.240   3.740   3.575 -0.2956  0.0556  0.1520
    2CYS     BB  405   1.506   3.299   3.245  0.2284 -0.0577  0.4958
    2CYS    SC1  406   1.611   3.268   2.981  0.1516  0.0369  0.0817
    3TYR     BB  407   1.732   3.533   3.391 -0.0755  0.3477  0.3420
    3TYR    SC1  408   1.601   3.484   3.660  0.1095  0.1975 -0.0296
    3TYR    SC2  409   1.417   3.475   3.858 -0.0042 -0.0267 -0.1402
    3TYR    SC3  410   1.549   3.251   3.785  0.2475  0.1117 -0.1279
    1TYR     BB  411   4.045   5.030   4.061  0.0272 -0.3390  0.2117
    1TYR    SC1  412   3.922   4.908   4.322  0.0670  0.1342  0.1986
    1TYR    SC2  413   3.899   4.668   4.442  0.1656  0.0453  0.0448
    1TYR    SC3  414   3.802   4.889   4.562 -0.3251 -0.1281 -0.0067
    2CYS     BB  415   3.888   4.937   3.842  0.0355  0.0298  0.2184
    2CYS    SC1  416   3.967   4.993   3.552 -0.0285 -0.2109  0.2439
    3TYR     BB  417   3.761   4.661   3.864  0.1632 -0.1066 -0.0449
    3TYR    SC1  418   3.605   4.591   3.579  0.3438  0.1221 -0.0284
    3TYR    SC2  419   3.473   4.677   3.359  0.2725 -0.0088 -0.0375
    3TYR    SC3  420   3.450   4.420   3.440  0.0138  0.1177  0.3232
    1TYR     BB  421   4.023   3.693   3.824  0.1344  0.1041  0.0475
    1TYR    SC1  422   4.073   3.444   3.622 -0.0641 -0.3040  0.2903
    1TYR    SC2  423   4.123   3.340   3.377  0.0553  0.0995  0.1339
    1TYR    SC3  424   3.937   3.227   3.537 -0.1016 -0.1097 -0.1836
    2CYS     BB  425   4.202   3.669   4.099  0.0568 -0.0079  0.2012
    2CYS    SC1  426   4.042   3.439   4.216 -0.0892  0.1022  0.2427
    3TYR     BB  427   4.472   3.654   4.208  0.2024 -0.2610  0.0203
    3TYR    SC1  428   4.568   3.439   4.407 -0.1572  0.0792  0.0490
    3TYR    SC2  429   4.677   3.342   4.634 -0.0312  0.0943 -0.0031
    3TYR    SC3  430   4.756   3.245   4.395  0.2375  0.4439 -0.0677
    1TYR     BB  431   4.563   4.178   4.285  0.1801  0.1847  0.3356
    1TYR    SC1  432   4.458   4.006   4.544  0.2045 -0.0313  0.0482
    1TYR    SC2  433   4.228   3.867   4.575  0.0471  0.1027 -0.4046
    1TYR    SC3  434   4.454   3.786   4.700 -0.1711 -0.2125 -0.1973
    2CYS     BB  435   4.499   4.100   3.947  0.1404  0.1146 -0.1155
    2CYS    SC1  436   4.767   3.962   3.912 -0.3467  0.2061  0.1219
    3TYR     BB  437   4.310   4.064   3.641  0.0465 -0.2963 -0.0099
    3TYR    SC1  438   4.560   4.123   3.449 -0.0185 -0.2058 -0.1748
    3TYR    SC2  439   4.753   3.987   3.316  0.1846 -0.1237  0.0282
    3TYR    SC3  440   4.668   4.226   3.223  0.2592 -0.1094 -0.0045
    1TYR     BB  441   5.515   3.430   3.949  0.3913 -0.3212 -0.1494
    1TYR    SC1  442   5.445   3.277   3.624 -0.2908 -0.0217  0.0724
    1TYR    SC2  443   5.557   3.115   3.440 -0.0543  0.1463  0.0617
    1TYR    SC3  444   5.405   3.323   3.361 -0.0880  0.1228  0.0640
    2CYS     BB  445   5.204   3.572   3.922 -0.1319 -0.0114 -0.2243
    2CYS    SC1  446   4.967   3.509   4.075 -0.0631  0.6446 -0.3080
    3TYR     BB  447   5.135   3.717   3.685 -0.0134 -0.0368  0.2550
    3TYR    SC1  448   5.006   3.616   3.434 -0.2253 -0.0351  0.0544
    3TYR    SC2  449   5.092   3.647   3.180  0.0834 -0.1293  0.1423
    3TYR    SC3  450   4.946   3.430   3.248  0.0444 -0.1299  0.0576
    1TYR     BB  451   7.237   3.382   3.177 -0.1457  0.3261  0.1666
    1TYR    SC1  452   6.951   3.448   3.075  0.2635  0.5822 -0.4729
    1TYR    SC2  453   6.706   3.562   3.092 -0.0105  0.0072 -0.2115
    1TYR    SC3  454   6.734   3.315   2.986  0.3892 -0.1174  0.1515
    2CYS     BB  455   7.332   3.137   3.069 -0.1216  0.0363  0.0710
    2CYS    SC1  456   7.158   3.031   2.848 -0.0395  0.1807 -0.0356
    3TYR     BB  457   7.533   2.963   3.224  0.0225 -0.1844  0.1571
    3TYR    SC1  458   7.418   3.000   3.503  0.2299  0.0360  0.2684
    3TYR    SC2  459   7.421   3.173   3.709  0.3787 -0.0146  0.3105
    3TYR    SC3  460   7.354   2.915   3.751 -0.2370  0.1019  0.1836
    1TYR     BB  461   0.676   3.954   4.144 -0.0762  0.2909 -0.0106
    1TYR    SC1  462   0.987   3.925   4.021  0.0498  0.2517 -0.1300
    1TYR    SC2  463   1.217   3.792   4.075 -0.0134  0.2210  0.0761
    1TYR    SC3  464   1.221   4.012   3.918  0.1418  0.1663  0.0017
    2CYS     BB  465   0.553   3.779   4.390 -0.3751 -0.0017 -0.2548
    2CYS    SC1  466   0.354   3.556   4.272  0.1112 -0.0720 -0.4960
    3TYR     BB  467   0.689   3.482   4.653  0.2435  0.1744 -0.0801
    3TYR    SC1  468   0.433   3.433   4.774  0.1149  0.0564  0.3525
    3TYR    SC2  469   0.168   3.480   4.750  0.1369 -0.0011 -0.0810
    3TYR    SC3  470   0.264   3.360   4.972 -0.2027 -0.0083  0.0686
    1TYR     BB  471   7.193   4.715   3.125  0.0317 -0.1602 -0.3805
    1TYR    SC1  472   7.210   5.039   3.246  0.3092  0.0442 -0.1434
    1TYR    SC2  473   7.262   5.256   3.095 -0.0665  0.1816 -0.0884
    1TYR    SC3  474   7.223   5.283   3.361  0.1727 -0.0002 -0.0308
    2CYS     BB  475   7.510   4.419   3.131 -0.1050 -0.2030  0.2801
    2CYS    SC1  476   7.618   4.322   2.884  0.1100 -0.2405  0.1273
    3TYR     BB  477   7.438   4.135   3.383 -0.2499 -0.1846 -0.0462
    3TYR    SC1  478   7.264   3.956   3.191 -0.2230  0.0041  0.1539
    3TYR    SC2  479   7.011   3.868   3.153 -0.1598 -0.1493  0.0730
    3TYR    SC3  480   7.197   3.829   2.963 -0.1304  0.1815  0.0258
    1TYR     BB  481   0.684   4.132   4.834  0.1120  0.0417 -0.1152
    1TYR    SC1  482   0.625   4.449   4.816 -0.3819 -0.1093  0.1778
    1TYR    SC2  483   0.486   4.678   4.843 -0.0770  0.0893  0.1264
    1TYR    SC3  484   0.751   4.675   4.895 -0.0202 -0.1832 -0.1497
    2CYS     BB  485   0.635   4.078   5.150  0.0839 -0.0111  0.0679
    2CYS    SC1  486   0.437   3.895   5.261  0.3884  0.0399 -0.0246
    3TYR     BB  487   0.656   4.343   5.355 -0.0312 -0.0206 -0.4601
    3TYR    SC1  488   0.936   4.452   5.348  0.0892 -0.0361  0.0389
    3TYR    SC2  489   1.031   4.695   5.278 -0.0243  0.1222  0.3966
    3TYR    SC3  490   1.193   4.517   5.401  0.1015 -0.0525 -0.0008
    1TYR     BB  491   0.946   3.341   2.924 -0.2806  0.1787  0.0729
    1TYR    SC1  492   0.876   3.047   3.022 -0.0417 -0.0744 -0.2136
    1TYR    SC2  493   0.682   2.891   3.125 -0.0223 -0.1386 -0.2728
    1TYR    SC3  494   0.941   2.829   3.167 -0.0122  0.0125 -0.0949
    2CYS     BB  495   1.181   3.576   2.889 -0.0541 -0.1177 -0.4561
    2CYS    SC1  496   1.302   3.743   3.070 -0.0847  0.2006 -0.2056
    3TYR     BB  497   1.272   3.596   2.533  0.3036  0.2806 -0.1632
    3TYR    SC1  498   1.545   3.725   2.576  0.0966 -0.2499 -0.2853
    3TYR    SC2  499   1.772   3.870   2.555 -0.1512  0.1981 -0.0442
    3TYR    SC3  500   1.734   3.708   2.768  0.0986 -0.1951 -0.2824
    1TYR     BB  501   2.609   3.602   3.374  0.0477  0.0260 -0.0040
    1TYR    SC1  502   2.633   3.483   3.097 -0.0101  0.3705 -0.2552
    1TYR    SC2  503   2.837   3.471   2.920  0.0660  0.0211 -0.1531
    1TYR    SC3  504   2.599   3.360   2.859  0.0684 -0.0313 -0.0692
    2CYS     BB  505   2.264   3.632   3.452  0.1760  0.0671  0.1917
    2CYS    SC1  506   2.150   3.858   3.302 -0.1783 -0.0553 -0.3761
    3TYR     BB  507   2.118   3.614   3.739  0.1038  0.3252  0.0494
    3TYR    SC1  508   2.151   3.902   3.863 -0.2730  0.1196 -0.1824
    3TYR    SC2  509   2.166   3.943   4.129  0.0858 -0.2775 -0.1277
    3TYR    SC3  510   2.145   4.153   3.961 -0.1903 -0.0223  0.2081
    1TYR     BB  511   5.879   3.465   3.635 -0.1047 -0.1774  0.5635
    1TYR    SC1  512   5.858   3.448   3.348  0.2222  0.4246 -0.0993
    1TYR    SC2  513   5.795   3.504   3.091 -0.0054 -0.0539 -0.1613
    1TYR    SC3  514   5.976   3.310   3.147  0.0180  0.0236  0.0428
    2CYS     BB  515   5.757   3.798   3.666  0.0914 -0.2579  0.0962
    2CYS    SC1  516   5.547   3.793   3.429  0.0345  0.1601 -0.0072
    3TYR     BB  517   5.755   3.991   3.884  0.1278 -0.1169 -0.0233
    3TYR    SC1  518   5.879   4.261   3.955 -0.1658  0.0370 -0.1445
    3TYR    SC2  519   6.119   4.379   3.997 -0.3125  0.1974  0.3424
    3TYR    SC3  520   5.944   4.487   3.822 -0.0156  0.0350 -0.0775
    1TYR     BB  521   1.803   2.842   3.311  0.1031 -0.1582  0.0173
    1TYR    SC1  522   2.032   2.645   3.291 -0.0912 -0.1142 -0.3346
    1TYR    SC2  523   2.108   2.385   3.277 -0.1727 -0.1401 -0.2997
    1TYR    SC3  524   2.184   2.537   3.487  0.2675 -0.0053 -0.5385
    2CYS     BB  525   1.601   2.727   3.584  0.0342 -0.0528  0.2285
    2CYS    SC1  526   1.331   2.817   3.537 -0.0560  0.3537 -0.2330
    3TYR     BB  527   1.625   2.384   3.702 -0.1242 -0.1606  0.0907
    3TYR    SC1  528   1.303   2.390   3.850  0.0178  0.1448  0.1346
    3TYR    SC2  529   1.033   2.386   3.863  0.0136 -0.4932  0.2706
    3TYR    SC3  530   1.179   2.409   4.090  0.0880 -0.0728  0.1912
    1TYR     BB  531   0.794   4.114   3.627 -0.0119  0.1379  0.1299
    1TYR    SC1  532   1.072   4.131   3.526  0.0381  0.4492  0.0299
    1TYR    SC2  533   1.229   4.152   3.307  0.4708  0.2306  0.3021
    1TYR    SC3  534   1.316   4.245   3.544  0.1566  0.1584  0.4530
    2CYS     BB  535   0.796   4.335   3.866 -0.1449  0.2160  0.0038
    2CYS    SC1  536   0.522   4.434   3.896  0.2171 -0.2019 -0.0596
    3TYR     BB  537   1.072   4.536   3.935  0.2982 -0.0763 -0.0813
    3TYR    SC1  538   1.020   4.840   4.008 -0.1520 -0.1588  0.0151
    3TYR    SC2  539   0.822   5.024   4.016 -0.0893 -0.0902  0.0010
    3TYR    SC3  540   1.072   5.096   3.942  0.0654 -0.0622  0.5062
    1TYR     BB  541   0.919   4.295   4.406 -0.0565 -0.1827 -0.2191
    1TYR    SC1  542   0.797   4.554   4.386  0.2077 -0.1204 -0.3937
    1TYR    SC2  543   0.829   4.814   4.452  0.2882 -0.1613 -0.2652
    1TYR    SC3  544   0.602   4.732   4.330 -0.1161 -0.1635  0.4254
    2CYS     BB  545   1.293   4.399   4.414 -0.1976 -0.0320 -0.3749
    2CYS    SC1  546   1.327   4.698   4.358  0.2777  0.0183 -0.0392
    3TYR     BB  547   1.429   4.223   4.505  0.1797 -0.0761 -0.0354
    3TYR    SC1  548   1.587   4.064   4.719 -0.0338  0.1779 -0.0485
    3TYR    SC2  549   1.783   3.894   4.796 -0.0690  0.1205 -0.0839
    3TYR    SC3  550   1.650   4.041   4.980  0.0497  0.2066 -0.0661
    1TYR     BB  551   6.775   3.785   3.546  0.3073  0.0647 -0.3058
    1TYR    SC1  552   6.602   3.970   3.379 -0.1469  0.3344  0.3216
    1TYR    SC2  553   6.453   4.169   3.274 -0.2954  0.0550 -0.0218
    1TYR    SC3  554   6.601   4.011   3.112 -0.0260  0.0029  0.2638
    2CYS     BB  555   6.676   3.681   3.824  0.0052 -0.1184  0.0075
    2CYS    SC1  556   6.861   3.798   4.009 -0.1556  0.0725 -0.0884
    3TYR     BB  557   6.438   3.457   3.833 -0.4684 -0.3541 -0.0832
    3TYR    SC1  558   6.387   3.422   3.539 -0.2194 -0.0971  0.4265
    3TYR    SC2  559   6.412   3.303   3.297  0.5135 -0.1194  0.4855
    3TYR    SC3  560   6.301   3.548   3.317  0.3445 -0.1622  0.1493
   7.66745   7.66745   7.66745
