Generated by trjconv : Martini system from ../2_Creating_coordinates/TYR-PHE-TYR_aa.pdb t=   0.00000
 1176
    1TYR     BB    1   2.566   2.541   3.981  0.2447 -0.0948 -0.5804
    1TYR    SC1    2   2.770   2.676   3.790  0.0804 -0.0534  0.0921
    1TYR    SC2    3   2.898   2.838   3.617  0.1052  0.1428  0.2886
    1TYR    SC3    4   3.028   2.628   3.726  0.1227  0.0831  0.1547
    2PHE     BB    5   2.267   2.317   3.929 -0.0118 -0.4292 -0.1810
    2PHE    SC1    6   2.066   2.533   4.030  0.1615 -0.0104  0.2634
    2PHE    SC2    7   2.119   2.792   4.086  0.2374  0.0083  0.1121
    2PHE    SC3    8   1.876   2.688   4.144  0.2381  0.0860  0.2614
    3TYR     BB    9   2.199   2.255   3.619 -0.1513  0.1285 -0.3903
    3TYR    SC1   10   1.933   2.382   3.572 -0.1115 -0.2673 -0.0594
    3TYR    SC2   11   1.707   2.374   3.720 -0.1024  0.3079  0.0127
    3TYR    SC3   12   1.697   2.459   3.464  0.0403  0.4438  0.0499
    1TYR     BB   13   2.449  -0.565   3.920 -0.1472 -0.0477  0.0221
    1TYR    SC1   14   2.166  -0.727   4.014  0.2616  0.0658 -0.1518
    1TYR    SC2   15   2.010  -0.609   4.200  0.2615  0.0809 -0.1615
    1TYR    SC3   16   1.945  -0.853   4.106  0.3884 -0.0298  0.0298
    2PHE     BB   17   2.559  -0.538   4.150 -0.0655  0.1386  0.1126
    2PHE    SC1   18   2.851  -0.606   4.233  0.0057  0.0954  0.0633
    2PHE    SC2   19   3.118  -0.576   4.211 -0.0216  0.1623 -0.2345
    2PHE    SC3   20   3.012  -0.823   4.245  0.0846  0.1554  0.0966
    3TYR     BB   21   2.427  -0.294   4.327 -0.1253 -0.0471 -0.1919
    3TYR    SC1   22   2.188  -0.153   4.113 -0.0289 -0.0661 -0.1442
    3TYR    SC2   23   2.037   0.010   3.960  0.2900  0.1674 -0.2251
    3TYR    SC3   24   2.063  -0.251   3.894  0.0582  0.1603 -0.3002
    1TYR     BB   25   4.330   5.903   1.640 -0.1007  0.0183  0.0048
    1TYR    SC1   26   4.206   6.191   1.572  0.1584  0.2616  0.1851
    1TYR    SC2   27   4.184   6.416   1.424 -0.2965  0.1169  0.0109
    1TYR    SC3   28   4.153   6.427   1.692 -0.3632  0.2559 -0.0014
    2PHE     BB   29   4.646   5.902   1.757 -0.1096 -0.0427 -0.0773
    2PHE    SC1   30   4.725   6.106   1.956 -0.1141 -0.2557  0.1021
    2PHE    SC2   31   4.841   6.341   2.021 -0.2282 -0.0596 -0.3492
    2PHE    SC3   32   4.579   6.301   2.072 -0.1356 -0.2324  0.0371
    3TYR     BB   33   4.853   5.640   1.586 -0.2851  0.0816 -0.2327
    3TYR    SC1   34   4.995   5.790   1.377 -0.1401  0.0303 -0.0615
    3TYR    SC2   35   5.134   5.865   1.158 -0.0851  0.1345  0.0081
    3TYR    SC3   36   5.081   6.044   1.353 -0.1702  0.0531  0.0611
    1TYR     BB   37   1.495   2.066   2.679  0.0881  0.1493  0.2037
    1TYR    SC1   38   1.295   2.091   2.472  0.3201 -0.1852 -0.0728
    1TYR    SC2   39   1.215   2.186   2.233 -0.0424  0.3805  0.2464
    1TYR    SC3   40   1.062   2.007   2.366  0.1771  0.0375  0.0572
    2PHE     BB   41   1.705   1.805   2.772 -0.1094 -0.0447  0.1525
    2PHE    SC1   42   1.583   1.587   2.614  0.3308  0.1758  0.2656
    2PHE    SC2   43   1.715   1.466   2.412  0.1805  0.0829  0.2210
    2PHE    SC3   44   1.511   1.339   2.536  0.1275  0.2259  0.2843
    3TYR     BB   45   2.011   1.758   2.800 -0.0570 -0.4200  0.2848
    3TYR    SC1   46   2.053   1.498   2.714  0.1104  0.1206 -0.1264
    3TYR    SC2   47   2.139   1.341   2.511 -0.1834 -0.1389 -0.0592
    3TYR    SC3   48   2.182   1.266   2.767 -0.2711 -0.0785 -0.0261
    1TYR     BB   49   3.652   6.553   1.902 -0.3796 -0.0008  0.1304
    1TYR    SC1   50   3.967   6.710   1.973  0.2045 -0.1140  0.1201
    1TYR    SC2   51   4.199   6.840   2.018  0.1656 -0.0858  0.2425
    1TYR    SC3   52   3.964   6.975   2.025  0.1192 -0.1720  0.4383
    2PHE     BB   53   3.482   6.784   2.019 -0.2949 -0.0259  0.0890
    2PHE    SC1   54   3.313   6.703   2.292  0.0383  0.0357 -0.0456
    2PHE    SC2   55   3.354   6.647   2.553 -0.2220  0.1579  0.0262
    2PHE    SC3   56   3.187   6.493   2.408  0.1141 -0.0629 -0.1407
    3TYR     BB   57   3.530   7.056   1.822 -0.0189  0.1584 -0.0234
    3TYR    SC1   58   3.224   7.182   1.743 -0.1561 -0.1220  0.1414
    3TYR    SC2   59   3.009   7.332   1.804 -0.0107  0.3158 -0.3369
    3TYR    SC3   60   2.995   7.151   1.605 -0.0270  0.0874 -0.1328
    1TYR     BB   61   2.806   3.340   4.742  0.0546 -0.0193 -0.2357
    1TYR    SC1   62   2.530   3.444   4.841  0.1610  0.1429 -0.1003
    1TYR    SC2   63   2.419   3.424   5.086  0.2066  0.3540 -0.0602
    1TYR    SC3   64   2.337   3.617   4.917  0.0304  0.0858 -0.2918
    2PHE     BB   65   2.938   3.454   4.488 -0.2434  0.1486 -0.0337
    2PHE    SC1   66   2.668   3.497   4.333 -0.1551  0.0616  0.0086
    2PHE    SC2   67   2.402   3.478   4.375 -0.1463  0.0572  0.0641
    2PHE    SC3   68   2.495   3.574   4.141 -0.1966  0.0495  0.0408
    3TYR     BB   69   3.298   3.329   4.461  0.0017  0.2433  0.1740
    3TYR    SC1   70   3.419   3.551   4.342 -0.1296 -0.0916 -0.0724
    3TYR    SC2   71   3.559   3.779   4.306  0.1332 -0.2743 -0.2572
    3TYR    SC3   72   3.521   3.610   4.099 -0.4226 -0.2074 -0.2305
    1TYR     BB   73   2.475   3.238   2.243  0.1571 -0.0920  0.1439
    1TYR    SC1   74   2.380   3.114   2.496  0.0879  0.0192 -0.0113
    1TYR    SC2   75   2.413   3.031   2.751  0.2772  0.2709  0.0513
    1TYR    SC3   76   2.276   3.258   2.699  0.0156  0.0859 -0.0947
    2PHE     BB   77   2.629   3.037   2.094 -0.0808 -0.1938  0.4263
    2PHE    SC1   78   2.767   2.818   2.282  0.1677  0.1131  0.0454
    2PHE    SC2   79   2.817   2.624   2.462  0.0151  0.0630  0.0354
    2PHE    SC3   80   2.985   2.834   2.440  0.1983 -0.0816  0.0255
    3TYR     BB   81   2.637   3.033   1.793 -0.1171 -0.2303 -0.1200
    3TYR    SC1   82   2.561   3.046   1.479  0.2610  0.4233 -0.3153
    3TYR    SC2   83   2.410   3.156   1.284 -0.1139  0.1382 -0.2013
    3TYR    SC3   84   2.574   2.949   1.227  0.1038  0.3294 -0.2892
    1TYR     BB   85   2.631   6.340   1.005  0.1298  0.1588  0.0768
    1TYR    SC1   86   2.932   6.276   1.104  0.1054  0.1670 -0.3557
    1TYR    SC2   87   3.178   6.361   1.177  0.1177  0.0008 -0.1939
    1TYR    SC3   88   3.141   6.104   1.101 -0.0632 -0.0646  0.0988
    2PHE     BB   89   2.343   6.421   1.134  0.0932 -0.1012 -0.1199
    2PHE    SC1   90   2.157   6.168   1.105 -0.0985  0.0161  0.0096
    2PHE    SC2   91   1.963   6.090   1.276  0.0696 -0.1414  0.1348
    2PHE    SC3   92   2.094   5.906   1.127 -0.1371  0.0008 -0.2432
    3TYR     BB   93   2.296   6.591   1.387 -0.0732 -0.1191 -0.5315
    3TYR    SC1   94   1.991   6.684   1.422  0.2161  0.1944  0.2426
    3TYR    SC2   95   1.772   6.686   1.580  0.1616  0.1961  0.1678
    3TYR    SC3   96   1.745   6.693   1.311  0.2420 -0.1365  0.1459
    1TYR     BB   97   4.463   6.010   2.424 -0.0508  0.2469 -0.0228
    1TYR    SC1   98   4.463   5.906   2.696 -0.1701  0.0689  0.1962
    1TYR    SC2   99   4.548   5.783   2.921 -0.0810 -0.0651  0.0912
    1TYR    SC3  100   4.284   5.822   2.881 -0.1169 -0.2904  0.0939
    2PHE     BB  101   4.797   6.121   2.476 -0.0063  0.1788 -0.0085
    2PHE    SC1  102   4.729   6.426   2.473 -0.1211  0.0269 -0.1702
    2PHE    SC2  103   4.801   6.652   2.602  0.0876 -0.1186 -0.0238
    2PHE    SC3  104   4.727   6.662   2.342  0.1107  0.1139 -0.0234
    3TYR     BB  105   5.085   6.077   2.370  0.2313  0.1954 -0.1765
    3TYR    SC1  106   5.214   6.354   2.323 -0.0285  0.1984 -0.0020
    3TYR    SC2  107   5.383   6.437   2.130 -0.1442  0.0137 -0.1889
    3TYR    SC3  108   5.244   6.618   2.274  0.1558  0.1651 -0.0777
    1TYR     BB  109   3.625   3.632   2.673  0.1912 -0.3427  0.0008
    1TYR    SC1  110   3.840   3.541   2.851 -0.0693 -0.1417  0.0610
    1TYR    SC2  111   4.067   3.644   2.955 -0.0935 -0.0703  0.0433
    1TYR    SC3  112   3.893   3.514   3.115 -0.0369 -0.1315  0.0556
    2PHE     BB  113   3.396   3.872   2.778  0.1151 -0.0116  0.1734
    2PHE    SC1  114   3.133   3.788   2.688  0.0680 -0.1566  0.1227
    2PHE    SC2  115   2.869   3.832   2.659 -0.0128 -0.5057  0.2651
    2PHE    SC3  116   2.999   3.675   2.483  0.1255 -0.2609  0.1419
    3TYR     BB  117   3.373   4.156   2.906  0.0771 -0.1117  0.2112
    3TYR    SC1  118   3.427   3.999   3.234  0.1032 -0.0891  0.0883
    3TYR    SC2  119   3.321   3.951   3.478 -0.6023 -0.1966 -0.2092
    3TYR    SC3  120   3.488   3.771   3.366 -0.4549 -0.2561  0.0940
    1TYR     BB  121   4.361   4.824   2.178  0.2570 -0.2828 -0.2751
    1TYR    SC1  122   4.091   4.834   2.026 -0.1610  0.0174  0.2999
    1TYR    SC2  123   3.833   4.760   1.994 -0.2308  0.2894  0.2056
    1TYR    SC3  124   3.983   4.825   1.779 -0.1155  0.2394  0.2699
    2PHE     BB  125   4.441   4.585   2.284  0.0427  0.1638 -0.0908
    2PHE    SC1  126   4.682   4.392   2.307 -0.3592 -0.3051 -0.2196
    2PHE    SC2  127   4.855   4.208   2.211  0.1546  0.0197  0.0295
    2PHE    SC3  128   4.906   4.333   2.446 -0.1563  0.5029 -0.1426
    3TYR     BB  129   4.307   4.526   2.601 -0.3520 -0.0033 -0.2759
    3TYR    SC1  130   4.463   4.298   2.719  0.2846  0.0580 -0.4556
    3TYR    SC2  131   4.429   4.065   2.851 -0.2253  0.2377 -0.2415
    3TYR    SC3  132   4.662   4.116   2.726  0.0619 -0.1919  0.0845
    1TYR     BB  133   2.059   6.132   2.692  0.2318 -0.0962 -0.3214
    1TYR    SC1  134   2.325   6.030   2.577  0.0717 -0.0124  0.0041
    1TYR    SC2  135   2.537   6.166   2.479  0.1544  0.0009  0.1963
    1TYR    SC3  136   2.534   5.896   2.471  0.0486  0.0060 -0.0656
    2PHE     BB  137   2.167   6.484   2.645 -0.3427 -0.1671  0.1867
    2PHE    SC1  138   2.025   6.605   2.406 -0.1998 -0.2160  0.1834
    2PHE    SC2  139   1.877   6.634   2.182  0.0872  0.0589  0.0188
    2PHE    SC3  140   1.871   6.825   2.373  0.2111  0.0637  0.0190
    3TYR     BB  141   2.488   6.567   2.779 -0.1949 -0.3025 -0.3101
    3TYR    SC1  142   2.765   6.507   2.762 -0.1651 -0.2226 -0.0421
    3TYR    SC2  143   2.934   6.299   2.727  0.0767 -0.0485  0.0484
    3TYR    SC3  144   2.959   6.457   2.944 -0.3542 -0.1515  0.1849
    1TYR     BB  145   2.942   2.623   1.824  0.4087  0.1447 -0.0837
    1TYR    SC1  146   3.184   2.408   1.762  0.0122  0.1985  0.1375
    1TYR    SC2  147   3.271   2.153   1.782 -0.1460  0.0979 -0.2975
    1TYR    SC3  148   3.421   2.356   1.880  0.0369 -0.1477 -0.0481
    2PHE     BB  149   2.601   2.515   1.896  0.1753  0.1393 -0.0302
    2PHE    SC1  150   2.487   2.332   2.103 -0.2111  0.3375 -0.0595
    2PHE    SC2  151   2.333   2.217   2.294 -0.1356  0.2444 -0.0537
    2PHE    SC3  152   2.586   2.292   2.350 -0.1601  0.3477 -0.0782
    3TYR     BB  153   2.422   2.607   1.696 -0.3211  0.0928  0.1360
    3TYR    SC1  154   2.356   2.402   1.493 -0.3781 -0.0374  0.0094
    3TYR    SC2  155   2.372   2.290   1.249 -0.3347  0.0929 -0.0485
    3TYR    SC3  156   2.257   2.154   1.452  0.0410 -0.2097 -0.0244
    1TYR     BB  157   4.587   4.801   1.699 -0.0678 -0.0815  0.1090
    1TYR    SC1  158   4.341   4.862   1.505 -0.2246 -0.2848 -0.1317
    1TYR    SC2  159   4.160   4.760   1.332 -0.2705 -0.2431 -0.1083
    1TYR    SC3  160   4.169   5.026   1.377 -0.1808 -0.2411 -0.1354
    2PHE     BB  161   4.744   4.970   1.941 -0.1724 -0.0407 -0.2721
    2PHE    SC1  162   4.943   4.771   2.073  0.1757  0.4887  0.1986
    2PHE    SC2  163   5.076   4.698   2.297 -0.1740 -0.0392  0.2551
    2PHE    SC3  164   5.074   4.536   2.081 -0.3012  0.2018  0.0686
    3TYR     BB  165   4.743   5.250   1.927  0.2084 -0.0544  0.1014
    3TYR    SC1  166   4.463   5.356   1.855 -0.1509  0.0987  0.0844
    3TYR    SC2  167   4.275   5.163   1.873  0.1542 -0.2360 -0.1361
    3TYR    SC3  168   4.239   5.373   1.706 -0.0909 -0.2059 -0.0509
    1TYR     BB  169   2.185   2.342   6.036  0.1627 -0.1379  0.3500
    1TYR    SC1  170   2.371   2.558   6.200  0.1464 -0.1792  0.2839
    1TYR    SC2  171   2.450   2.816   6.189  0.1693 -0.1945 -0.2165
    1TYR    SC3  172   2.469   2.678   6.421  0.1653  0.2430  0.0586
    2PHE     BB  173   2.390   2.221   5.783 -0.1321 -0.2230 -0.1563
    2PHE    SC1  174   2.269   1.907   5.722 -0.2221 -0.0963 -0.3367
    2PHE    SC2  175   2.091   1.706   5.746 -0.0157 -0.2486  0.0308
    2PHE    SC3  176   2.343   1.654   5.664  0.0094 -0.1204  0.0234
    3TYR     BB  177   2.596   2.364   5.607 -0.2705  0.1957 -0.0419
    3TYR    SC1  178   2.667   2.685   5.706  0.1776 -0.1713  0.6977
    3TYR    SC2  179   2.736   2.924   5.812 -0.0135  0.1323  0.1834
    3TYR    SC3  180   2.490   2.889   5.705  0.0948 -0.2203  0.0293
    1TYR     BB  181   2.056   2.232   2.733 -0.2204 -0.0484  0.0031
    1TYR    SC1  182   2.324   2.343   2.764 -0.0358  0.0485 -0.3489
    1TYR    SC2  183   2.594   2.323   2.766 -0.0475 -0.1265 -0.3564
    1TYR    SC3  184   2.476   2.558   2.702  0.1071  0.0778  0.0614
    2PHE     BB  185   1.800   2.307   2.995 -0.1245  0.0915  0.0492
    2PHE    SC1  186   1.807   2.062   3.209  0.3778  0.0845  0.1779
    2PHE    SC2  187   1.713   1.975   3.446  0.1932 -0.1405  0.0286
    2PHE    SC3  188   1.861   1.811   3.291  0.1211 -0.0747 -0.1118
    3TYR     BB  189   1.614   2.462   2.910 -0.1694  0.2238 -0.0442
    3TYR    SC1  190   1.613   2.742   2.982 -0.0474 -0.0791  0.2468
    3TYR    SC2  191   1.620   2.833   3.236  0.0196  0.1717  0.1594
    3TYR    SC3  192   1.582   3.006   3.033  0.0090 -0.0206 -0.0055
    1TYR     BB  193   1.384   1.827   4.300 -0.1135  0.1202  0.1466
    1TYR    SC1  194   1.524   2.106   4.270  0.2058 -0.2002 -0.3369
    1TYR    SC2  195   1.476   2.332   4.130 -0.0451 -0.1206 -0.1328
    1TYR    SC3  196   1.730   2.253   4.176  0.0430 -0.0468 -0.4612
    2PHE     BB  197   1.564   1.599   4.114  0.0925  0.0212 -0.1079
    2PHE    SC1  198   1.745   1.782   3.915 -0.2790  0.0768 -0.2171
    2PHE    SC2  199   1.915   1.991   3.938  0.0506 -0.2027  0.0236
    2PHE    SC3  200   1.963   1.796   3.757 -0.0785 -0.2285  0.0160
    3TYR     BB  201   1.722   1.335   4.154 -0.0536  0.0191 -0.0772
    3TYR    SC1  202   1.884   1.348   4.448 -0.0038 -0.3980 -0.1527
    3TYR    SC2  203   2.101   1.211   4.533  0.1275 -0.0660  0.0755
    3TYR    SC3  204   1.941   1.335   4.712  0.0298  0.1012 -0.1221
    1TYR     BB  205   2.888   1.971   5.573 -0.0718  0.0093 -0.0620
    1TYR    SC1  206   2.688   1.959   5.368 -0.0953 -0.2779  0.2174
    1TYR    SC2  207   2.426   1.948   5.302 -0.0505 -0.1212  0.0020
    1TYR    SC3  208   2.615   1.896   5.116  0.0782  0.1962  0.0350
    2PHE     BB  209   2.833   1.787   5.900  0.2108 -0.2352 -0.0365
    2PHE    SC1  210   3.053   1.833   6.141 -0.2250  0.0265 -0.0313
    2PHE    SC2  211   3.182   1.763   6.368 -0.1714  0.0306 -0.0602
    2PHE    SC3  212   3.112   2.020   6.326  0.0998  0.0883 -0.1877
    3TYR     BB  213   2.754   1.485   5.878  0.1262  0.1910 -0.2570
    3TYR    SC1  214   2.964   1.341   6.013  0.0199  0.1241  0.1380
    3TYR    SC2  215   3.225   1.367   6.079  0.0139 -0.0741  0.2480
    3TYR    SC3  216   3.093   1.138   6.135 -0.1523 -0.0228  0.0806
    1TYR     BB  217   3.320   3.437   3.036 -0.0977  0.0118  0.0072
    1TYR    SC1  218   3.579   3.238   3.051  0.1914  0.1364  0.0448
    1TYR    SC2  219   3.750   3.084   2.909 -0.1304 -0.2383  0.0425
    1TYR    SC3  220   3.721   3.045   3.174 -0.0820 -0.0506  0.0775
    2PHE     BB  221   3.044   3.271   3.103 -0.0990 -0.2647  0.1494
    2PHE    SC1  222   2.867   3.286   2.852 -0.1982  0.0853  0.2044
    2PHE    SC2  223   2.670   3.430   2.738 -0.0161  0.1694 -0.0125
    2PHE    SC3  224   2.780   3.223   2.604  0.0544  0.1329  0.1005
    3TYR     BB  225   3.068   3.232   3.404  0.1051 -0.3259  0.4677
    3TYR    SC1  226   3.326   3.308   3.500 -0.0067 -0.1274 -0.1579
    3TYR    SC2  227   3.460   3.477   3.662 -0.1203 -0.0983 -0.0927
    3TYR    SC3  228   3.594   3.286   3.526  0.0169  0.0755 -0.2080
    1TYR     BB  229   2.710   3.515   1.702  0.0118 -0.0382  0.0057
    1TYR    SC1  230   2.774   3.558   1.380  0.3233 -0.0394  0.0666
    1TYR    SC2  231   2.873   3.665   1.152  0.3196 -0.0420  0.0638
    1TYR    SC3  232   2.703   3.455   1.140  0.5641 -0.2461  0.0789
    2PHE     BB  233   2.375   3.471   1.732 -0.2030  0.1352  0.1572
    2PHE    SC1  234   2.293   3.537   1.454 -0.2653 -0.0937  0.0236
    2PHE    SC2  235   2.207   3.529   1.199 -0.1952 -0.1057 -0.0003
    2PHE    SC3  236   2.212   3.763   1.332 -0.0857 -0.0729 -0.0611
    3TYR     BB  237   2.223   3.572   1.970  0.1859  0.0729  0.1599
    3TYR    SC1  238   2.249   3.708   2.262  0.0980  0.2667 -0.2543
    3TYR    SC2  239   2.150   3.862   2.460 -0.2515 -0.0041 -0.2044
    3TYR    SC3  240   2.348   3.686   2.512 -0.0744  0.1942 -0.1903
    1TYR     BB  241   3.352   0.858   4.237  0.2263 -0.1496  0.0641
    1TYR    SC1  242   3.421   0.881   4.576 -0.1295 -0.1418 -0.5205
    1TYR    SC2  243   3.539   0.838   4.815  0.1978  0.1088 -0.6276
    1TYR    SC3  244   3.285   0.758   4.773  0.0610  0.2409 -0.1289
    2PHE     BB  245   3.163   0.944   4.044 -0.1352  0.3486  0.2099
    2PHE    SC1  246   3.325   1.047   3.777  0.1943 -0.2377 -0.0948
    2PHE    SC2  247   3.373   1.210   3.567 -0.1398 -0.1028 -0.0738
    2PHE    SC3  248   3.577   1.128   3.724  0.0561  0.1664 -0.1778
    3TYR     BB  249   2.895   0.864   4.037 -0.1792  0.0451 -0.0610
    3TYR    SC1  250   2.679   1.056   4.090  0.0532  0.0519 -0.2530
    3TYR    SC2  251   2.489   1.221   3.990  0.1462  0.1184 -0.3224
    3TYR    SC3  252   2.604   1.276   4.229 -0.0431 -0.0156 -0.1969
    1TYR     BB  253   3.153   2.210   3.468 -0.0653 -0.2996 -0.1143
    1TYR    SC1  254   3.053   2.059   3.267  0.0696  0.0060  0.0360
    1TYR    SC2  255   2.989   1.834   3.134  0.1286 -0.0064  0.0283
    1TYR    SC3  256   2.898   2.072   3.047 -0.0091 -0.0356  0.0883
    2PHE     BB  257   3.442   2.300   3.503  0.1563 -0.1071 -0.0584
    2PHE    SC1  258   3.647   2.076   3.461  0.0220  0.3616  0.0770
    2PHE    SC2  259   3.770   1.952   3.255 -0.1612  0.1110  0.1129
    2PHE    SC3  260   3.841   1.895   3.509 -0.2332  0.0935  0.1293
    3TYR     BB  261   3.462   2.410   3.770  0.0286  0.2838  0.0054
    3TYR    SC1  262   3.712   2.294   3.959 -0.0384 -0.2020 -0.1348
    3TYR    SC2  263   3.873   2.084   4.015  0.1850  0.0388  0.1698
    3TYR    SC3  264   3.980   2.323   3.947 -0.0666  0.0241 -0.3446
    1TYR     BB  265   3.383   0.887   3.243 -0.2452  0.0150 -0.2458
    1TYR    SC1  266   3.198   0.748   3.441  0.0416 -0.2156 -0.0769
    1TYR    SC2  267   3.005   0.559   3.448 -0.2802  0.1001 -0.0434
    1TYR    SC3  268   3.198   0.563   3.637 -0.3761 -0.0836  0.0619
    2PHE     BB  269   3.402   1.107   3.059  0.0803  0.0487 -0.1816
    2PHE    SC1  270   3.666   1.122   2.925  0.0253 -0.1563  0.1158
    2PHE    SC2  271   3.833   1.171   2.719  0.0894 -0.0873  0.1834
    2PHE    SC3  272   3.933   1.122   2.965  0.0092  0.0308  0.2408
    3TYR     BB  273   3.129   1.325   3.118 -0.0107  0.1281  0.1571
    3TYR    SC1  274   2.945   1.158   3.306  0.2157  0.1753  0.2365
    3TYR    SC2  275   2.785   0.946   3.358  0.1452  0.1610 -0.0216
    3TYR    SC3  276   2.890   1.089   3.561  0.0821 -0.0369  0.1544
    1TYR     BB  277   3.217   4.829   1.968  0.1287  0.0597  0.0140
    1TYR    SC1  278   3.057   4.550   2.072  0.0003 -0.1462  0.0797
    1TYR    SC2  279   2.832   4.635   2.193 -0.1640  0.3262 -0.4917
    1TYR    SC3  280   2.854   4.378   2.114 -0.2095  0.1080  0.1334
    2PHE     BB  281   3.082   4.777   1.664 -0.0777 -0.2797 -0.1556
    2PHE    SC1  282   3.178   5.024   1.546 -0.3294 -0.1061 -0.0492
    2PHE    SC2  283   3.184   5.294   1.559 -0.1025 -0.1031 -0.1477
    2PHE    SC3  284   3.034   5.170   1.370  0.0775 -0.0332 -0.3417
    3TYR     BB  285   3.069   4.522   1.582 -0.0641 -0.1133  0.0741
    3TYR    SC1  286   3.248   4.378   1.408  0.2442  0.1007  0.2610
    3TYR    SC2  287   3.242   4.112   1.357 -0.0373  0.1531 -0.0272
    3TYR    SC3  288   3.446   4.263   1.263 -0.1076  0.1069 -0.2609
    1TYR     BB  289   3.616   1.794   4.387 -0.0457 -0.1651 -0.0679
    1TYR    SC1  290   3.904   1.736   4.297  0.0155  0.0294 -0.2267
    1TYR    SC2  291   4.077   1.534   4.249  0.0290 -0.1009  0.2906
    1TYR    SC3  292   4.159   1.791   4.229  0.0731 -0.1393 -0.1543
    2PHE     BB  293   3.607   2.065   4.435  0.0029 -0.3141  0.0984
    2PHE    SC1  294   3.874   2.227   4.454  0.0215  0.0593  0.1715
    2PHE    SC2  295   4.140   2.250   4.415  0.0069  0.0634  0.0705
    2PHE    SC3  296   3.977   2.459   4.364 -0.0111  0.0773  0.1802
    3TYR     BB  297   3.381   2.341   4.349  0.0317  0.1746 -0.2300
    3TYR    SC1  298   3.559   2.579   4.258 -0.2428 -0.0522 -0.1126
    3TYR    SC2  299   3.735   2.734   4.124 -0.1576  0.2112  0.2828
    3TYR    SC3  300   3.550   2.847   4.285 -0.3997 -0.0853  0.2266
    1TYR     BB  301   3.820   2.149   5.754  0.0565  0.1063 -0.0848
    1TYR    SC1  302   3.635   2.060   5.941  0.1294 -0.0171  0.2292
    1TYR    SC2  303   3.398   2.138   6.043 -0.0440 -0.2695  0.0354
    1TYR    SC3  304   3.569   1.994   6.194 -0.0497 -0.1611  0.1476
    2PHE     BB  305   3.849   2.096   5.427 -0.0263  0.1581 -0.3584
    2PHE    SC1  306   3.954   1.827   5.373 -0.0769  0.0673  0.0575
    2PHE    SC2  307   4.061   1.589   5.446  0.0260  0.1015  0.0199
    2PHE    SC3  308   4.098   1.683   5.195 -0.1958  0.0574 -0.0317
    3TYR     BB  309   3.715   2.302   5.259 -0.0893  0.0047 -0.0109
    3TYR    SC1  310   3.624   2.588   5.251 -0.1643 -0.0561  0.1504
    3TYR    SC2  311   3.408   2.718   5.346 -0.0600  0.0655  0.2244
    3TYR    SC3  312   3.525   2.800   5.117 -0.2796 -0.1950  0.0108
    1TYR     BB  313   2.792   4.760   1.141 -0.1211  0.0656 -0.0868
    1TYR    SC1  314   3.093   4.843   1.094  0.0929  0.1534 -0.3273
    1TYR    SC2  315   3.337   4.934   1.164  0.1367  0.0422 -0.3341
    1TYR    SC3  316   3.304   4.675   1.095 -0.0054  0.0289 -0.2216
    2PHE     BB  317   2.725   4.508   1.239 -0.2943  0.1588 -0.0078
    2PHE    SC1  318   2.453   4.438   1.252  0.0367 -0.0424 -0.2222
    2PHE    SC2  319   2.293   4.220   1.246  0.2755 -0.2374  0.0904
    2PHE    SC3  320   2.185   4.466   1.275 -0.0081 -0.2912 -0.3935
    3TYR     BB  321   2.853   4.251   1.072 -0.0832  0.1693 -0.0160
    3TYR    SC1  322   2.649   4.061   1.061 -0.2618  0.3468  0.1568
    3TYR    SC2  323   2.486   4.086   0.848 -0.2250 -0.1929  0.0459
    3TYR    SC3  324   2.499   3.851   0.980  0.1676 -0.0391  0.3044
    1TYR     BB  325   1.362   3.279   1.969 -0.2678 -0.0129 -0.3728
    1TYR    SC1  326   1.266   3.004   1.993  0.2345 -0.0539  0.1857
    1TYR    SC2  327   1.134   2.868   2.186  0.0254  0.0030  0.0870
    1TYR    SC3  328   1.231   2.737   1.971 -0.1779  0.0051 -0.0093
    2PHE     BB  329   1.705   3.377   2.040  0.1735  0.4237  0.1260
    2PHE    SC1  330   1.721   3.669   1.991 -0.3154  0.0785  0.2478
    2PHE    SC2  331   1.702   3.922   1.898  0.0451  0.0375  0.0379
    2PHE    SC3  332   1.872   3.865   2.100  0.0305 -0.0518  0.0253
    3TYR     BB  333   1.945   3.322   2.311  0.0290 -0.2062  0.3381
    3TYR    SC1  334   1.889   3.447   2.538  0.0457  0.0053 -0.0843
    3TYR    SC2  335   1.789   3.629   2.711  0.0657  0.0256 -0.0942
    3TYR    SC3  336   1.853   3.381   2.797 -0.0253  0.0014 -0.0950
    1TYR     BB  337   3.076   3.358   3.995 -0.0730 -0.1063  0.0940
    1TYR    SC1  338   3.267   3.148   3.931  0.0740  0.0289  0.0245
    1TYR    SC2  339   3.532   3.098   3.919  0.0293 -0.2299  0.0409
    1TYR    SC3  340   3.360   2.946   3.777 -0.0902  0.1466 -0.2375
    2PHE     BB  341   2.835   3.280   3.896  0.1737  0.2207  0.1600
    2PHE    SC1  342   2.692   3.081   4.082  0.0897  0.0593  0.1727
    2PHE    SC2  343   2.438   3.099   4.172 -0.0541 -0.4509 -0.0796
    2PHE    SC3  344   2.624   2.969   4.318 -0.0053 -0.3228 -0.0255
    3TYR     BB  345   2.690   3.323   3.649  0.1595  0.0217  0.0913
    3TYR    SC1  346   2.426   3.411   3.641 -0.0026 -0.0937  0.0545
    3TYR    SC2  347   2.165   3.379   3.581  0.0637 -0.4595 -0.0681
    3TYR    SC3  348   2.241   3.408   3.838 -0.1038 -0.2258 -0.0403
    1TYR     BB  349   4.516   5.075   3.378  0.0416 -0.0360 -0.0599
    1TYR    SC1  350   4.646   4.855   3.526  0.3057  0.2325  0.0555
    1TYR    SC2  351   4.594   4.640   3.680  0.0687  0.1871 -0.0814
    1TYR    SC3  352   4.841   4.750   3.681  0.2286 -0.1524 -0.0939
    2PHE     BB  353   4.171   5.049   3.505 -0.3202  0.3823 -0.0129
    2PHE    SC1  354   4.120   4.746   3.535 -0.5981  0.1003 -0.0807
    2PHE    SC2  355   4.144   4.534   3.701  0.1099  0.0541 -0.2021
    2PHE    SC3  356   4.104   4.494   3.437  0.4853  0.0423 -0.2639
    3TYR     BB  357   3.985   5.219   3.678  0.1875  0.0473 -0.2845
    3TYR    SC1  358   3.803   5.444   3.653  0.1743  0.2649  0.1589
    3TYR    SC2  359   3.726   5.542   3.414 -0.1354 -0.0571  0.1172
    3TYR    SC3  360   3.636   5.656   3.641 -0.1333  0.0275  0.0761
    1TYR     BB  361   2.274   7.039   1.654  0.0005 -0.0115 -0.2346
    1TYR    SC1  362   2.505   7.191   1.551  0.0875 -0.1341 -0.0614
    1TYR    SC2  363   2.633   7.427   1.577  0.2080 -0.2190  0.1472
    1TYR    SC3  364   2.628   7.301   1.337  0.2000 -0.0389  0.0508
    2PHE     BB  365   2.108   6.996   1.929 -0.0318 -0.0585 -0.1467
    2PHE    SC1  366   2.221   7.013   2.203 -0.1530 -0.0679  0.0402
    2PHE    SC2  367   2.382   7.159   2.362 -0.0522 -0.1342  0.0002
    2PHE    SC3  368   2.394   6.890   2.369 -0.2390 -0.1418  0.0757
    3TYR     BB  369   1.705   7.056   1.934  0.2058  0.3312  0.3348
    3TYR    SC1  370   1.707   7.114   1.633 -0.1145 -0.0716 -0.0100
    3TYR    SC2  371   1.846   7.077   1.404 -0.1734  0.1175 -0.0784
    3TYR    SC3  372   1.597   7.180   1.396 -0.1390  0.2181  0.0773
    1TYR     BB  373   1.997   8.906   3.728  0.0445  0.0587 -0.0478
    1TYR    SC1  374   1.742   9.056   3.661  0.0166 -0.1582  0.1670
    1TYR    SC2  375   1.532   9.191   3.557  0.2619  0.1896  0.0980
    1TYR    SC3  376   1.493   8.954   3.681 -0.1858  0.3099  0.2098
    2PHE     BB  377   1.854   8.580   3.587 -0.0428 -0.0997  0.1003
    2PHE    SC1  378   1.623   8.640   3.383 -0.4614 -0.0732  0.3631
    2PHE    SC2  379   1.520   8.537   3.155 -0.0698  0.2673  0.0093
    2PHE    SC3  380   1.358   8.661   3.333 -0.3948 -0.0717 -0.0331
    3TYR     BB  381   1.945   8.370   3.713  0.1749 -0.1592 -0.0593
    3TYR    SC1  382   2.152   8.439   3.972  0.0187  0.4191 -0.1579
    3TYR    SC2  383   2.122   8.578   4.202  0.0835 -0.1906  0.2513
    3TYR    SC3  384   2.334   8.414   4.171  0.0749 -0.1269 -0.2576
    1TYR     BB  385   3.315   1.659   3.475  0.0419 -0.2774 -0.1589
    1TYR    SC1  386   3.520   1.566   3.263 -0.0287 -0.1609  0.1500
    1TYR    SC2  387   3.720   1.388   3.296 -0.0025 -0.1981 -0.1687
    1TYR    SC3  388   3.713   1.544   3.076 -0.0837  0.1240  0.0531
    2PHE     BB  389   3.086   1.569   3.601 -0.1513  0.2648 -0.1598
    2PHE    SC1  390   2.856   1.758   3.563 -0.0673  0.1822 -0.2833
    2PHE    SC2  391   2.799   1.970   3.719 -0.3842 -0.1943  0.1458
    2PHE    SC3  392   2.665   1.933   3.488 -0.4482 -0.0195  0.1527
    3TYR     BB  393   2.971   1.413   3.904 -0.2980 -0.0505  0.0566
    3TYR    SC1  394   2.976   1.622   4.147  0.1512  0.1337  0.0203
    3TYR    SC2  395   2.824   1.699   4.357  0.0821 -0.3641  0.1675
    3TYR    SC3  396   3.092   1.676   4.385  0.1214 -0.0667  0.0819
    1TYR     BB  397   1.967   2.921   1.380 -0.2406 -0.1192 -0.2761
    1TYR    SC1  398   1.916   3.139   1.191  0.2081  0.3712 -0.0351
    1TYR    SC2  399   1.715   3.310   1.137  0.0172  0.0574 -0.3733
    1TYR    SC3  400   1.927   3.293   0.970  0.1771  0.1638 -0.1855
    2PHE     BB  401   2.059   3.113   1.682  0.2105 -0.0019  0.0351
    2PHE    SC1  402   1.923   3.376   1.617 -0.1123 -0.0044 -0.2214
    2PHE    SC2  403   1.808   3.613   1.557  0.0811  0.1395 -0.0418
    2PHE    SC3  404   1.659   3.388   1.561 -0.1669  0.3004  0.0648
    3TYR     BB  405   2.124   3.061   1.916 -0.3956 -0.0955  0.1844
    3TYR    SC1  406   2.182   2.852   2.125  0.0506  0.0083  0.0341
    3TYR    SC2  407   2.323   2.711   2.308  0.1742  0.2019  0.0929
    3TYR    SC3  408   2.141   2.587   2.151  0.1520  0.0120  0.2648
    1TYR     BB  409   3.282   2.912   2.832 -0.0861  0.0105  0.0762
    1TYR    SC1  410   3.273   2.877   3.125 -0.1869  0.2401 -0.0057
    1TYR    SC2  411   3.397   2.891   3.364 -0.1413 -0.0050 -0.0119
    1TYR    SC3  412   3.200   2.711   3.324 -0.1992  0.0846 -0.1375
    2PHE     BB  413   3.458   2.689   2.643 -0.0831 -0.1902  0.0157
    2PHE    SC1  414   3.652   2.573   2.892 -0.0891 -0.2807  0.0399
    2PHE    SC2  415   3.623   2.587   3.160  0.0091 -0.1155  0.0440
    2PHE    SC3  416   3.767   2.387   3.050  0.1909 -0.0377  0.1347
    3TYR     BB  417   3.585   2.504   2.416 -0.0541  0.0558  0.1840
    3TYR    SC1  418   3.712   2.577   2.137  0.0315  0.1551  0.4441
    3TYR    SC2  419   3.906   2.759   2.090 -0.0942  0.1758 -0.0628
    3TYR    SC3  420   3.754   2.667   1.886 -0.0056 -0.5420  0.1581
    1TYR     BB  421   3.981   6.086   2.595 -0.2425  0.2777  0.2344
    1TYR    SC1  422   3.837   6.354   2.495  0.0078  0.0994  0.1979
    1TYR    SC2  423   3.765   6.581   2.368  0.4643  0.1084 -0.0747
    1TYR    SC3  424   3.790   6.578   2.637 -0.2811  0.1571  0.0233
    2PHE     BB  425   3.927   5.826   2.470  0.0987  0.2276 -0.2230
    2PHE    SC1  426   4.052   5.740   2.230  0.1799 -0.1202  0.2624
    2PHE    SC2  427   4.043   5.632   1.983 -0.0986 -0.1000  0.2594
    2PHE    SC3  428   4.278   5.721   2.083 -0.0317  0.1860 -0.1256
    3TYR     BB  429   3.887   5.525   2.638  0.1306  0.0633 -0.1086
    3TYR    SC1  430   3.877   5.316   2.415  0.0892 -0.1690 -0.2699
    3TYR    SC2  431   3.973   5.211   2.186 -0.1024 -0.1850 -0.3447
    3TYR    SC3  432   3.732   5.134   2.280 -0.1145 -0.0296 -0.2443
    1TYR     BB  433   1.688   2.887   2.098  0.0539 -0.1028  0.3398
    1TYR    SC1  434   1.549   2.732   2.312  0.2994 -0.0117  0.1561
    1TYR    SC2  435   1.437   2.756   2.557 -0.0117  0.0540  0.0135
    1TYR    SC3  436   1.370   2.548   2.397  0.3918 -0.1393  0.0798
    2PHE     BB  437   1.688   2.820   1.811 -0.0048 -0.0863 -0.2094
    2PHE    SC1  438   1.561   2.940   1.577  0.0077 -0.5080 -0.1633
    2PHE    SC2  439   1.300   2.974   1.518 -0.0028 -0.2109  0.0270
    2PHE    SC3  440   1.478   2.931   1.320 -0.1042  0.2571 -0.1828
    3TYR     BB  441   1.886   2.579   1.736  0.0556 -0.3408  0.1962
    3TYR    SC1  442   1.874   2.435   1.480 -0.0119  0.0052 -0.1601
    3TYR    SC2  443   1.978   2.432   1.230 -0.1057  0.2067 -0.2035
    3TYR    SC3  444   1.710   2.439   1.265 -0.1008 -0.0423 -0.0936
    1TYR     BB  445   1.740   6.843   2.937  0.1007 -0.2120  0.2077
    1TYR    SC1  446   1.622   6.622   2.740 -0.0158 -0.2485  0.0687
    1TYR    SC2  447   1.406   6.527   2.609 -0.0572  0.1027 -0.1331
    1TYR    SC3  448   1.654   6.453   2.531 -0.0944 -0.1794 -0.0001
    2PHE     BB  449   2.048   6.913   2.838 -0.0301 -0.0416 -0.0525
    2PHE    SC1  450   2.064   7.159   2.662 -0.0689  0.0399  0.0316
    2PHE    SC2  451   1.949   7.240   2.432 -0.3661 -0.0970  0.1260
    2PHE    SC3  452   2.042   7.422   2.607 -0.2879  0.0125 -0.0267
    3TYR     BB  453   2.209   6.842   3.081 -0.4071 -0.2940 -0.1913
    3TYR    SC1  454   2.110   7.041   3.334  0.0173 -0.3121  0.2431
    3TYR    SC2  455   1.904   7.180   3.439  0.0474 -0.0299 -0.0534
    3TYR    SC3  456   2.079   7.056   3.602 -0.0120  0.2350  0.2240
    1TYR     BB  457   4.040   6.367   3.020 -0.0098 -0.4183 -0.2340
    1TYR    SC1  458   3.936   6.072   3.104 -0.1480 -0.1130  0.0335
    1TYR    SC2  459   3.906   5.804   3.091 -0.2675 -0.0905 -0.2450
    1TYR    SC3  460   3.703   5.958   3.181 -0.1546 -0.0979  0.0359
    2PHE     BB  461   4.361   6.370   2.826  0.0690  0.1911 -0.1269
    2PHE    SC1  462   4.261   6.488   2.574 -0.1513 -0.2882 -0.0514
    2PHE    SC2  463   4.263   6.461   2.305 -0.0560 -0.1389 -0.0670
    2PHE    SC3  464   4.292   6.705   2.417  0.4011 -0.2499  0.0856
    3TYR     BB  465   4.683   6.263   2.980  0.0705 -0.0823 -0.1079
    3TYR    SC1  466   4.598   6.107   3.256  0.1710 -0.2750  0.0223
    3TYR    SC2  467   4.336   6.079   3.316  0.1712 -0.0381  0.1464
    3TYR    SC3  468   4.524   5.962   3.471  0.1373 -0.3739 -0.0549
    1TYR     BB  469   3.360   2.030   5.229  0.2425 -0.0435  0.2228
    1TYR    SC1  470   3.272   2.265   5.381  0.1523  0.3794 -0.0290
    1TYR    SC2  471   3.341   2.344   5.630  0.0179  0.0633  0.1145
    1TYR    SC3  472   3.113   2.435   5.517  0.0230  0.1213  0.1507
    2PHE     BB  473   3.573   1.842   5.062  0.1542  0.1888 -0.2219
    2PHE    SC1  474   3.613   1.565   5.170  0.0594  0.1543  0.1653
    2PHE    SC2  475   3.506   1.317   5.165 -0.3614  0.3270  0.0526
    2PHE    SC3  476   3.718   1.369   5.323 -0.1420 -0.1455 -0.0640
    3TYR     BB  477   3.758   1.902   4.862  0.3442  0.0428 -0.2138
    3TYR    SC1  478   4.042   2.002   4.924  0.1585 -0.0507  0.0163
    3TYR    SC2  479   4.260   2.073   5.066  0.0049  0.2800  0.0999
    3TYR    SC3  480   4.273   2.058   4.797  0.1348  0.2742  0.1059
    1TYR     BB  481   3.167   2.916   4.823 -0.1388 -0.1935 -0.3437
    1TYR    SC1  482   3.050   2.981   5.137  0.1910 -0.0845 -0.2186
    1TYR    SC2  483   2.946   2.928   5.381  0.2493 -0.1132 -0.1996
    1TYR    SC3  484   2.909   3.171   5.268  0.1857 -0.1140 -0.1812
    2PHE     BB  485   3.202   2.545   4.764 -0.1365  0.1534  0.0125
    2PHE    SC1  486   3.074   2.488   5.030 -0.1022  0.2402 -0.3484
    2PHE    SC2  487   2.890   2.298   5.084  0.1608  0.1091  0.1628
    2PHE    SC3  488   2.843   2.555   5.152  0.2858  0.0223  0.6268
    3TYR     BB  489   3.450   2.312   4.825 -0.1100  0.2900  0.1101
    3TYR    SC1  490   3.714   2.459   4.798 -0.0346  0.0295  0.2011
    3TYR    SC2  491   3.975   2.454   4.866 -0.0693  0.2997  0.3744
    3TYR    SC3  492   3.871   2.672   4.745 -0.0724 -0.0577 -0.3288
    1TYR     BB  493   3.251   3.252   2.490 -0.2615 -0.3038 -0.0533
    1TYR    SC1  494   3.073   3.259   2.229 -0.0193  0.4089  0.1379
    1TYR    SC2  495   3.018   3.450   2.047 -0.2425  0.1577 -0.0688
    1TYR    SC3  496   3.096   3.205   1.966 -0.0642  0.1246  0.1882
    2PHE     BB  497   3.575   3.104   2.362 -0.0264 -0.0683  0.0008
    2PHE    SC1  498   3.483   2.990   2.113  0.0013  0.0062  0.3688
    2PHE    SC2  499   3.314   2.780   2.125  0.1388 -0.1300  0.0502
    2PHE    SC3  500   3.373   2.892   1.886  0.0650  0.2778  0.2147
    3TYR     BB  501   3.842   3.227   2.355  0.3072  0.0738  0.0525
    3TYR    SC1  502   4.030   3.416   2.398 -0.0655  0.0018 -0.2826
    3TYR    SC2  503   4.150   3.622   2.524 -0.0234 -0.3388  0.2758
    3TYR    SC3  504   4.295   3.459   2.366 -0.1029  0.1720 -0.3748
    1TYR     BB  505   2.428   4.984   2.462  0.4660 -0.0711 -0.4056
    1TYR    SC1  506   2.251   4.905   2.226  0.2917 -0.1333 -0.3405
    1TYR    SC2  507   2.062   4.952   2.040 -0.1546  0.0596  0.1310
    1TYR    SC3  508   2.020   4.766   2.231  0.2579 -0.0809  0.0974
    2PHE     BB  509   2.561   4.738   2.648 -0.0975  0.1313  0.0430
    2PHE    SC1  510   2.874   4.614   2.666 -0.0445  0.2966 -0.3443
    2PHE    SC2  511   3.118   4.604   2.550  0.1103  0.0374 -0.0158
    2PHE    SC3  512   2.979   4.376   2.594 -0.2022  0.1827 -0.2082
    3TYR     BB  513   2.524   4.676   3.032  0.0645  0.2959 -0.1472
    3TYR    SC1  514   2.286   4.501   2.982 -0.4891  0.3013 -0.0183
    3TYR    SC2  515   2.213   4.266   2.871  0.2623 -0.1484  0.3392
    3TYR    SC3  516   2.113   4.339   3.111  0.0352 -0.0944  0.2323
    1TYR     BB  517   2.925   8.334   1.979  0.2670  0.1448  0.0942
    1TYR    SC1  518   2.648   8.456   2.025 -0.0556 -0.0830  0.1422
    1TYR    SC2  519   2.425   8.373   2.152 -0.2263  0.3477  0.1434
    1TYR    SC3  520   2.407   8.482   1.907  0.0056  0.2486  0.0792
    2PHE     BB  521   2.958   8.214   1.704  0.2468  0.0467 -0.1637
    2PHE    SC1  522   2.892   8.250   1.407 -0.2291  0.0037 -0.0404
    2PHE    SC2  523   2.714   8.254   1.204 -0.2727  0.0442 -0.0016
    2PHE    SC3  524   2.975   8.209   1.153 -0.2829  0.0576 -0.0673
    3TYR     BB  525   2.983   7.829   1.697  0.0728  0.0517 -0.1816
    3TYR    SC1  526   3.093   7.778   1.967  0.0551 -0.1435  0.1752
    3TYR    SC2  527   3.090   7.590   2.162 -0.0298 -0.1082  0.2086
    3TYR    SC3  528   3.322   7.708   2.092  0.0091 -0.1585  0.2525
    1TYR     BB  529   2.181   5.778   1.638 -0.3438  0.0215  0.2863
    1TYR    SC1  530   2.284   5.588   1.415 -0.0663  0.2126 -0.0383
    1TYR    SC2  531   2.431   5.481   1.217 -0.1548 -0.0225  0.0194
    1TYR    SC3  532   2.161   5.474   1.204 -0.1610 -0.0564  0.1552
    2PHE     BB  533   2.286   6.090   1.637  0.1990 -0.1108  0.0642
    2PHE    SC1  534   2.033   6.229   1.690 -0.1032  0.0639 -0.1122
    2PHE    SC2  535   1.774   6.160   1.657 -0.1235  0.1922 -0.2309
    2PHE    SC3  536   1.843   6.334   1.850 -0.0878 -0.0565 -0.0128
    3TYR     BB  537   2.539   6.071   1.423  0.0231 -0.2308 -0.1137
    3TYR    SC1  538   2.592   5.925   1.199 -0.0562 -0.0118 -0.0164
    3TYR    SC2  539   2.779   5.821   1.033  0.1224  0.1956  0.0485
    3TYR    SC3  540   2.520   5.830   0.957  0.1100 -0.2238  0.0131
    1TYR     BB  541   3.589   5.038   2.789 -0.1742  0.1795 -0.1176
    1TYR    SC1  542   3.819   4.938   2.630 -0.0968 -0.0520 -0.0631
    1TYR    SC2  543   3.961   4.791   2.452 -0.0724 -0.1226  0.0137
    1TYR    SC3  544   4.084   4.982   2.598 -0.0738 -0.1259  0.0192
    2PHE     BB  545   3.357   4.899   2.872  0.0008 -0.0544  0.1579
    2PHE    SC1  546   3.121   5.045   2.978  0.1553  0.3408  0.0675
    2PHE    SC2  547   2.974   5.122   3.191  0.0499 -0.2233  0.2192
    2PHE    SC3  548   2.857   4.989   2.987  0.2157  0.0083 -0.0346
    3TYR     BB  549   3.288   4.613   3.026  0.1241 -0.2834 -0.0606
    3TYR    SC1  550   3.134   4.682   3.293  0.0745 -0.2837  0.0090
    3TYR    SC2  551   3.116   4.788   3.540  0.1534  0.0412 -0.1177
    3TYR    SC3  552   2.893   4.707   3.412  0.1173 -0.1768  0.0753
    1TYR     BB  553   5.016   5.897   2.927 -0.3137 -0.1301 -0.1964
    1TYR    SC1  554   5.156   6.118   2.893  0.2135  0.1112  0.1114
    1TYR    SC2  555   5.123   6.359   2.774  0.1901  0.1008  0.0968
    1TYR    SC3  556   5.306   6.329   2.970  0.2723  0.1029  0.0213
    2PHE     BB  557   5.057   5.587   2.680  0.0489 -0.0054 -0.0170
    2PHE    SC1  558   4.841   5.428   2.775 -0.0037  0.0621  0.0604
    2PHE    SC2  559   4.894   5.240   2.961  0.1427  0.3346  0.3062
    2PHE    SC3  560   4.653   5.363   2.957  0.1526  0.3550  0.3395
    3TYR     BB  561   5.286   5.615   2.590  0.1983  0.0919 -0.0947
    3TYR    SC1  562   5.513   5.398   2.563 -0.3843 -0.3323 -0.1758
    3TYR    SC2  563   5.664   5.254   2.392 -0.1619  0.0572 -0.3226
    3TYR    SC3  564   5.697   5.224   2.658 -0.0814 -0.1205 -0.3508
    1TYR     BB  565   2.682   8.247   2.595 -0.1918 -0.1123  0.2900
    1TYR    SC1  566   2.891   8.344   2.769 -0.2304  0.0258 -0.1368
    1TYR    SC2  567   3.001   8.580   2.839 -0.2013  0.0031 -0.1053
    1TYR    SC3  568   2.983   8.381   3.020 -0.0620 -0.0803 -0.1811
    2PHE     BB  569   2.842   8.051   2.390 -0.1639  0.0557  0.0231
    2PHE    SC1  570   2.716   7.915   2.177 -0.1689  0.1485  0.1359
    2PHE    SC2  571   2.536   7.986   1.988 -0.1453  0.2581  0.1534
    2PHE    SC3  572   2.612   7.728   2.013 -0.2018  0.2318  0.0603
    3TYR     BB  573   3.092   7.983   2.511 -0.0100 -0.2666 -0.1558
    3TYR    SC1  574   3.297   8.139   2.632 -0.0684 -0.0528  0.0221
    3TYR    SC2  575   3.564   8.147   2.669 -0.0651  0.2287 -0.0301
    3TYR    SC3  576   3.403   8.302   2.820 -0.2065  0.0237  0.0354
    1TYR     BB  577   3.391   5.419   2.535 -0.0614 -0.2333  0.1563
    1TYR    SC1  578   3.133   5.223   2.530  0.1421 -0.2493  0.1822
    1TYR    SC2  579   2.884   5.129   2.578 -0.0267  0.0433 -0.0743
    1TYR    SC3  580   3.028   5.033   2.370  0.0477 -0.0719  0.0286
    2PHE     BB  581   3.460   5.619   2.359 -0.2015  0.2756 -0.0336
    2PHE    SC1  582   3.459   5.884   2.515  0.0803  0.1320 -0.0843
    2PHE    SC2  583   3.523   5.899   2.777 -0.1334  0.0739 -0.0262
    2PHE    SC3  584   3.370   6.091   2.664 -0.2689 -0.0402 -0.0402
    3TYR     BB  585   3.606   5.638   2.125 -0.1951 -0.1602 -0.1100
    3TYR    SC1  586   3.559   5.710   1.848 -0.0942 -0.1132 -0.1824
    3TYR    SC2  587   3.535   5.893   1.651  0.1097 -0.0898 -0.1881
    3TYR    SC3  588   3.406   5.657   1.632  0.0602 -0.0542 -0.3087
    1TYR     BB  589   1.981   9.189   1.441 -0.0302 -0.1662  0.1826
    1TYR    SC1  590   1.851   9.089   1.136  0.1501  0.0582 -0.0878
    1TYR    SC2  591   1.759   8.926   0.941  0.0307  0.1907 -0.1442
    1TYR    SC3  592   1.729   9.194   0.919  0.0547  0.2101  0.0365
    2PHE     BB  593   1.901   9.447   1.534  0.0810 -0.0999  0.0908
    2PHE    SC1  594   2.021   9.583   1.764 -0.0079  0.0733 -0.2870
    2PHE    SC2  595   2.073   9.817   1.888 -0.0652  0.0468 -0.2113
    2PHE    SC3  596   2.272   9.639   1.848 -0.0912 -0.0534  0.0741
    3TYR     BB  597   1.648   9.580   1.416 -0.3078 -0.0983  0.6688
    3TYR    SC1  598   1.417   9.408   1.259 -0.1436 -0.0320 -0.3119
    3TYR    SC2  599   1.411   9.138   1.270  0.0239 -0.0421 -0.4269
    3TYR    SC3  600   1.222   9.271   1.131 -0.2040 -0.0834 -0.1687
    1TYR     BB  601   3.642   3.775   1.404  0.2214  0.3295 -0.0955
    1TYR    SC1  602   3.861   3.571   1.493  0.2164 -0.0005 -0.3756
    1TYR    SC2  603   4.099   3.673   1.568  0.1325  0.1076 -0.2505
    1TYR    SC3  604   4.080   3.413   1.499  0.1983 -0.0366  0.2202
    2PHE     BB  605   3.592   3.969   1.770 -0.2514  0.1441 -0.1043
    2PHE    SC1  606   3.850   3.857   1.940 -0.0843  0.0717 -0.0636
    2PHE    SC2  607   4.048   3.700   2.033 -0.1668 -0.2510 -0.4023
    2PHE    SC3  608   3.871   3.810   2.204  0.0786 -0.2651 -0.1294
    3TYR     BB  609   3.576   4.281   1.842  0.3626 -0.2544 -0.0279
    3TYR    SC1  610   3.611   4.495   1.658 -0.1101 -0.1378 -0.0173
    3TYR    SC2  611   3.764   4.529   1.439 -0.0144  0.0799  0.0798
    3TYR    SC3  612   3.563   4.701   1.491 -0.0870 -0.0169  0.1228
    1TYR     BB  613   2.077   8.984   3.259  0.0448  0.3552  0.2665
    1TYR    SC1  614   1.828   9.013   3.167  0.0352  0.3548 -0.0517
    1TYR    SC2  615   1.692   8.946   2.943 -0.2911  0.0201  0.2304
    1TYR    SC3  616   1.563   9.063   3.150  0.0435  0.4970  0.1887
    2PHE     BB  617   2.258   9.230   3.415 -0.3621  0.0422  0.1885
    2PHE    SC1  618   2.322   9.480   3.232  0.0229  0.2270  0.3362
    2PHE    SC2  619   2.289   9.735   3.150  0.0589  0.1364  0.0234
    2PHE    SC3  620   2.483   9.582   3.041  0.0904 -0.0026  0.2660
    3TYR     BB  621   2.515   9.056   3.541 -0.2780  0.1338 -0.1255
    3TYR    SC1  622   2.433   8.770   3.547 -0.0138 -0.1417 -0.2376
    3TYR    SC2  623   2.318   8.555   3.433 -0.2395 -0.2363  0.1449
    3TYR    SC3  624   2.430   8.534   3.677  0.2069 -0.0354 -0.0298
    1TYR     BB  625   3.095   1.434   5.483  0.0949 -0.0752  0.0311
    1TYR    SC1  626   3.267   1.643   5.592 -0.2156  0.1678 -0.0742
    1TYR    SC2  627   3.525   1.715   5.630 -0.0626 -0.4260  0.1628
    1TYR    SC3  628   3.335   1.791   5.807 -0.0437 -0.0622  0.0364
    2PHE     BB  629   2.976   1.546   5.215 -0.2338  0.1788 -0.1682
    2PHE    SC1  630   2.697   1.492   5.259 -0.0594  0.4820  0.0892
    2PHE    SC2  631   2.517   1.346   5.397  0.0301  0.4540  0.1777
    2PHE    SC3  632   2.434   1.508   5.198 -0.0630  0.2234  0.0237
    3TYR     BB  633   3.103   1.694   4.972  0.0655  0.0226 -0.0891
    3TYR    SC1  634   2.998   1.921   4.840 -0.1781  0.2056 -0.1409
    3TYR    SC2  635   3.004   2.088   4.628 -0.4712  0.4055 -0.0006
    3TYR    SC3  636   2.767   2.012   4.734 -0.3557 -0.2064 -0.1315
    1TYR     BB  637   3.721   4.462   2.771  0.8686 -0.1961 -0.0193
    1TYR    SC1  638   3.551   4.587   2.537 -0.1655  0.3401 -0.1514
    1TYR    SC2  639   3.506   4.562   2.272 -0.1296 -0.2091 -0.1182
    1TYR    SC3  640   3.483   4.803   2.390 -0.1330  0.0503 -0.6172
    2PHE     BB  641   3.849   4.554   3.022 -0.3582  0.0216 -0.1385
    2PHE    SC1  642   3.713   4.409   3.282  0.2340  0.0202  0.2067
    2PHE    SC2  643   3.490   4.431   3.432  0.3213  0.4151  0.2937
    2PHE    SC3  644   3.684   4.257   3.503  0.0018 -0.0250  0.1491
    3TYR     BB  645   4.020   4.753   3.047  0.0576  0.0254  0.4089
    3TYR    SC1  646   4.003   5.054   3.032 -0.3910 -0.0772 -0.2427
    3TYR    SC2  647   4.162   5.267   2.984 -0.0107 -0.3665 -0.3304
    3TYR    SC3  648   3.923   5.301   3.106  0.2871  0.0443  0.1953
    1TYR     BB  649   3.092   7.495   2.700 -0.2821  0.1428 -0.1767
    1TYR    SC1  650   3.395   7.537   2.626  0.2871  0.2001  0.1062
    1TYR    SC2  651   3.506   7.734   2.479  0.0359  0.0102 -0.3635
    1TYR    SC3  652   3.661   7.538   2.581  0.1925  0.0028 -0.6062
    2PHE     BB  653   2.919   7.354   2.989 -0.0596 -0.1082 -0.1578
    2PHE    SC1  654   2.685   7.249   2.869 -0.0889  0.1872  0.0467
    2PHE    SC2  655   2.539   7.042   2.777  0.0329  0.0327  0.1924
    2PHE    SC3  656   2.424   7.284   2.811 -0.1352 -0.0335  0.1100
    3TYR     BB  657   3.039   7.231   3.213  0.0925  0.1527  0.3133
    3TYR    SC1  658   3.377   7.294   3.186 -0.1629  0.2783  0.0131
    3TYR    SC2  659   3.641   7.281   3.243 -0.1220  0.0206 -0.2099
    3TYR    SC3  660   3.555   7.426   3.032 -0.1830  0.2639 -0.0226
    1TYR     BB  661   1.828   9.152   1.932  0.0479  0.0555  0.0487
    1TYR    SC1  662   1.873   8.863   2.041  0.1099 -0.0082 -0.0009
    1TYR    SC2  663   2.012   8.700   2.205 -0.1949 -0.2104  0.0671
    1TYR    SC3  664   1.889   8.599   1.987 -0.1121 -0.0092 -0.0765
    2PHE     BB  665   1.569   9.090   1.725  0.1814 -0.0781 -0.0994
    2PHE    SC1  666   1.246   9.085   1.713  0.1996  0.0840 -0.1529
    2PHE    SC2  667   0.982   9.031   1.702  0.2215 -0.1242  0.1555
    2PHE    SC3  668   1.071   9.229   1.862  0.2416  0.0738 -0.0928
    3TYR     BB  669   1.713   8.809   1.592 -0.0432  0.1844 -0.1812
    3TYR    SC1  670   1.753   8.694   1.349 -0.3481 -0.1628  0.2605
    3TYR    SC2  671   1.672   8.549   1.136 -0.1453 -0.2016  0.2070
    3TYR    SC3  672   1.931   8.544   1.211 -0.1052  0.2279  0.1289
    1TYR     BB  673   4.465   4.913   2.904 -0.1557 -0.2058  0.2079
    1TYR    SC1  674   4.513   4.698   3.063  0.1592 -0.0848 -0.1926
    1TYR    SC2  675   4.648   4.526   3.221  0.0090 -0.0328 -0.0020
    1TYR    SC3  676   4.401   4.462   3.132 -0.0737  0.1073  0.1221
    2PHE     BB  677   4.668   4.883   2.596 -0.1458 -0.0079 -0.0328
    2PHE    SC1  678   4.869   4.679   2.719  0.1964 -0.1224 -0.1339
    2PHE    SC2  679   4.901   4.457   2.870  0.3134  0.1648  0.2878
    2PHE    SC3  680   5.115   4.611   2.808  0.2363  0.1595 -0.0128
    3TYR     BB  681   4.821   5.096   2.447 -0.2226  0.3498  0.2814
    3TYR    SC1  682   5.117   5.057   2.546  0.1488 -0.2617  0.1662
    3TYR    SC2  683   5.274   5.034   2.764  0.1704 -0.2851  0.1484
    3TYR    SC3  684   5.361   4.943   2.525  0.1888 -0.1671  0.1093
    1TYR     BB  685   3.061   1.888   2.586 -0.0300 -0.1693  0.1721
    1TYR    SC1  686   3.293   1.943   2.725  0.1617 -0.1344 -0.0532
    1TYR    SC2  687   3.475   2.124   2.807 -0.0418 -0.0182  0.1572
    1TYR    SC3  688   3.412   1.915   2.966  0.1497 -0.2496 -0.0598
    2PHE     BB  689   3.069   1.516   2.663  0.4871 -0.0938  0.2908
    2PHE    SC1  690   2.763   1.532   2.814  0.0583 -0.2138  0.1191
    2PHE    SC2  691   2.505   1.540   2.893  0.0737 -0.0817  0.1581
    2PHE    SC3  692   2.701   1.498   3.074  0.0754 -0.2572  0.1177
    3TYR     BB  693   3.300   1.414   2.633 -0.5363 -0.0184 -0.1773
    3TYR    SC1  694   3.562   1.553   2.618 -0.3410  0.0060 -0.1812
    3TYR    SC2  695   3.820   1.568   2.539 -0.1739 -0.2731  0.2615
    3TYR    SC3  696   3.713   1.765   2.689 -0.3512  0.0308 -0.2332
    1TYR     BB  697   2.817   8.902   1.838  0.0386 -0.0026  0.2698
    1TYR    SC1  698   3.097   8.756   1.749 -0.0287  0.1263  0.4298
    1TYR    SC2  699   3.277   8.599   1.875  0.2493  0.2927  0.2536
    1TYR    SC3  700   3.362   8.796   1.711 -0.0984  0.3395  0.1197
    2PHE     BB  701   2.981   8.892   2.184 -0.0807 -0.1482  0.2936
    2PHE    SC1  702   3.297   8.930   2.169 -0.1587  0.1326 -0.2081
    2PHE    SC2  703   3.474   9.133   2.191  0.0200 -0.0370 -0.0317
    2PHE    SC3  704   3.562   8.879   2.171 -0.2038 -0.1224  0.0283
    3TYR     BB  705   2.935   8.659   2.375  0.1756  0.0382  0.0464
    3TYR    SC1  706   3.215   8.542   2.450  0.0210  0.0294  0.0762
    3TYR    SC2  707   3.460   8.608   2.544  0.1325 -0.2234 -0.0268
    3TYR    SC3  708   3.436   8.469   2.314 -0.1261  0.1463 -0.2373
    1TYR     BB  709   2.635   1.699   6.397  0.0991 -0.0435  0.1436
    1TYR    SC1  710   2.785   1.769   6.645  0.2160  0.2550 -0.2269
    1TYR    SC2  711   3.011   1.730   6.787  0.0146  0.1359  0.0743
    1TYR    SC3  712   2.877   1.964   6.808 -0.1911  0.0006  0.3520
    2PHE     BB  713   2.457   1.888   6.211 -0.0438  0.1983  0.1092
    2PHE    SC1  714   2.176   1.816   6.191 -0.1738 -0.1610  0.1716
    2PHE    SC2  715   1.917   1.752   6.148 -0.1828 -0.2440  0.3365
    2PHE    SC3  716   1.980   1.953   6.316 -0.1474  0.0341  0.0042
    3TYR     BB  717   2.633   2.187   6.343  0.3366  0.0486 -0.3463
    3TYR    SC1  718   2.769   2.318   6.149  0.4324 -0.4424  0.2210
    3TYR    SC2  719   2.978   2.282   5.981  0.4101 -0.0156  0.0876
    3TYR    SC3  720   2.891   2.532   6.037 -0.1542 -0.1832  0.0308
    1TYR     BB  721   2.910   6.929   2.538 -0.2567 -0.1343  0.0259
    1TYR    SC1  722   3.059   6.911   2.781 -0.1214  0.1661 -0.0248
    1TYR    SC2  723   3.236   6.827   2.966  0.0087  0.3503 -0.0620
    1TYR    SC3  724   3.287   7.050   2.823  0.0876  0.0241 -0.5752
    2PHE     BB  725   3.023   7.134   2.337 -0.0826 -0.1442  0.3448
    2PHE    SC1  726   2.794   7.172   2.143 -0.1338  0.2695  0.1298
    2PHE    SC2  727   2.671   6.986   1.990  0.1275  0.0702  0.1520
    2PHE    SC3  728   2.578   7.240   1.997 -0.4042 -0.1130  0.3308
    3TYR     BB  729   3.280   7.192   2.245 -0.2503  0.2344  0.0694
    3TYR    SC1  730   3.516   7.086   2.441 -0.1707 -0.0004  0.0541
    3TYR    SC2  731   3.680   7.086   2.655  0.0761 -0.1733 -0.1276
    3TYR    SC3  732   3.782   7.048   2.408 -0.1795  0.1875 -0.2991
    1TYR     BB  733   1.263   4.515   2.174 -0.0398 -0.0291  0.0454
    1TYR    SC1  734   1.377   4.473   1.913  0.1446 -0.1182  0.2246
    1TYR    SC2  735   1.401   4.529   1.650 -0.3222 -0.0407  0.1884
    1TYR    SC3  736   1.595   4.390   1.776  0.0170  0.1141 -0.1373
    2PHE     BB  737   1.511   4.685   2.414  0.1546 -0.1571  0.2313
    2PHE    SC1  738   1.722   4.467   2.331 -0.2804 -0.2393  0.0867
    2PHE    SC2  739   1.644   4.226   2.237 -0.2253 -0.2095 -0.0348
    2PHE    SC3  740   1.889   4.323   2.176 -0.3277 -0.0261 -0.1694
    3TYR     BB  741   1.595   4.927   2.533 -0.4333  0.0649 -0.0571
    3TYR    SC1  742   1.764   5.142   2.376  0.3465 -0.1013 -0.1146
    3TYR    SC2  743   1.830   5.315   2.180 -0.0872  0.2522  0.0321
    3TYR    SC3  744   2.001   5.272   2.386  0.0661  0.4388 -0.0525
    1TYR     BB  745   3.936   4.347   2.269  0.2573  0.2271  0.0812
    1TYR    SC1  746   4.049   4.347   1.984 -0.2089 -0.0495 -0.1513
    1TYR    SC2  747   4.175   4.163   1.832  0.4087  0.0791  0.1646
    1TYR    SC3  748   4.179   4.423   1.760  0.2213  0.0709  0.1213
    2PHE     BB  749   4.063   4.135   2.500 -0.1398 -0.1739 -0.1214
    2PHE    SC1  750   4.319   4.027   2.359  0.2886  0.3586 -0.0809
    2PHE    SC2  751   4.513   3.839   2.345 -0.1367 -0.1167  0.0364
    2PHE    SC3  752   4.467   4.002   2.135  0.3121 -0.0607 -0.0300
    3TYR     BB  753   3.890   4.024   2.678 -0.0185 -0.0825  0.1263
    3TYR    SC1  754   3.900   4.046   2.973  0.1384 -0.2213 -0.0031
    3TYR    SC2  755   3.879   3.977   3.233 -0.1447 -0.0295  0.0297
    3TYR    SC3  756   4.095   4.113   3.147 -0.2129  0.2267  0.2459
    1TYR     BB  757   2.615   4.629   1.699  0.1534 -0.0653  0.1736
    1TYR    SC1  758   2.525   4.883   1.586  0.1037  0.0594  0.1430
    1TYR    SC2  759   2.568   5.121   1.467 -0.0784 -0.0965 -0.2583
    1TYR    SC3  760   2.403   5.105   1.679 -0.1299  0.1221 -0.2784
    2PHE     BB  761   2.415   4.569   1.932  0.1037 -0.2909  0.0814
    2PHE    SC1  762   2.384   4.465   2.207 -0.6637 -0.0606 -0.3365
    2PHE    SC2  763   2.250   4.389   2.429 -0.0685 -0.3601 -0.0503
    2PHE    SC3  764   2.307   4.208   2.237  0.0078 -0.2612 -0.1225
    3TYR     BB  765   2.128   4.543   1.798 -0.0974  0.0176  0.2400
    3TYR    SC1  766   2.080   4.753   1.577  0.1295  0.1030  0.1581
    3TYR    SC2  767   2.101   4.921   1.367  0.0997 -0.2202 -0.1125
    3TYR    SC3  768   1.872   4.784   1.408 -0.0504  0.1444  0.3800
    1TYR     BB  769   2.350   5.137   2.929 -0.0721 -0.1301 -0.3721
    1TYR    SC1  770   2.265   5.375   3.140 -0.4144  0.1178 -0.0738
    1TYR    SC2  771   2.262   5.600   3.289 -0.0226  0.1147 -0.0488
    1TYR    SC3  772   2.054   5.429   3.300 -0.0914  0.2113  0.3436
    2PHE     BB  773   2.040   4.960   2.832 -0.0475 -0.3477  0.0021
    2PHE    SC1  774   1.878   5.212   2.836  0.2697 -0.2185  0.1246
    2PHE    SC2  775   1.918   5.479   2.848 -0.1720 -0.1328 -0.0655
    2PHE    SC3  776   1.732   5.363   3.006 -0.1828 -0.2812 -0.1839
    3TYR     BB  777   1.948   4.662   2.724 -0.0065 -0.1311 -0.0414
    3TYR    SC1  778   1.777   4.649   3.010  0.2578  0.1057  0.0901
    3TYR    SC2  779   1.598   4.446   3.019  0.2651  0.1019  0.1557
    3TYR    SC3  780   1.688   4.558   3.248  0.1334  0.2921  0.1181
    1TYR     BB  781   2.495   7.656   3.097 -0.1514 -0.1650  0.2531
    1TYR    SC1  782   2.186   7.623   3.021 -0.1938  0.2348  0.0024
    1TYR    SC2  783   1.923   7.640   2.959 -0.1710  0.0896 -0.1423
    1TYR    SC3  784   2.021   7.415   3.071 -0.1871  0.3002  0.3242
    2PHE     BB  785   2.697   7.815   2.905 -0.1197 -0.4475  0.0824
    2PHE    SC1  786   2.636   7.651   2.633  0.1430  0.3223 -0.4186
    2PHE    SC2  787   2.690   7.487   2.425 -0.1665 -0.3339 -0.0245
    2PHE    SC3  788   2.437   7.569   2.470 -0.0033  0.4171 -0.2910
    3TYR     BB  789   2.916   7.885   3.043 -0.1284 -0.4544 -0.2792
    3TYR    SC1  790   3.206   7.986   3.041 -0.1017  0.2791  0.0646
    3TYR    SC2  791   3.459   7.894   3.023 -0.2468 -0.1543  0.0917
    3TYR    SC3  792   3.391   8.062   3.222 -0.0263 -0.1944  0.2048
    1TYR     BB  793   2.697   6.540   2.291 -0.0027 -0.0205 -0.0346
    1TYR    SC1  794   2.891   6.642   2.088 -0.2669  0.2593  0.1795
    1TYR    SC2  795   3.041   6.798   1.926 -0.0817  0.0730  0.1664
    1TYR    SC3  796   3.076   6.530   1.926 -0.2441  0.0490  0.3452
    2PHE     BB  797   2.417   6.507   2.130 -0.0288  0.4343  0.1673
    2PHE    SC1  798   2.247   6.260   2.198  0.0478  0.0351  0.0821
    2PHE    SC2  799   2.224   6.004   2.115 -0.0933  0.0192  0.1670
    2PHE    SC3  800   2.009   6.134   2.214 -0.0373  0.1914  0.0675
    3TYR     BB  801   2.386   6.588   1.889 -0.0210 -0.0054 -0.1787
    3TYR    SC1  802   2.675   6.567   1.699  0.2252  0.0998 -0.0763
    3TYR    SC2  803   2.774   6.748   1.525  0.0642  0.0463 -0.2278
    3TYR    SC3  804   2.832   6.486   1.495  0.1691  0.0542 -0.1020
    1TYR     BB  805   4.817   5.540   3.358  0.0191  0.2253 -0.1446
    1TYR    SC1  806   4.531   5.532   3.373  0.3213 -0.0538 -0.1382
    1TYR    SC2  807   4.304   5.526   3.518  0.4571 -0.2232  0.0758
    1TYR    SC3  808   4.299   5.617   3.264  0.2364  0.2090  0.2212
    2PHE     BB  809   4.979   5.299   3.499 -0.0696  0.0988 -0.1560
    2PHE    SC1  810   5.038   5.030   3.384  0.0347 -0.4293  0.1683
    2PHE    SC2  811   4.985   4.883   3.163 -0.1227 -0.0086 -0.0889
    2PHE    SC3  812   5.240   4.915   3.246 -0.0689 -0.2399 -0.1563
    3TYR     BB  813   5.280   5.447   3.618 -0.2682 -0.1412  0.1026
    3TYR    SC1  814   5.461   5.209   3.618  0.0484  0.0379 -0.0742
    3TYR    SC2  815   5.490   4.941   3.611  0.0723  0.0396 -0.0430
    3TYR    SC3  816   5.692   5.096   3.701  0.1566  0.0858 -0.3015
    1TYR     BB  817   3.066   3.838   4.101  0.2517  0.2153  0.2852
    1TYR    SC1  818   3.030   4.139   4.144 -0.1351 -0.0166 -0.3841
    1TYR    SC2  819   2.908   4.377   4.110 -0.2095  0.0568  0.2394
    1TYR    SC3  820   3.059   4.333   4.329  0.3976 -0.2454 -0.2020
    2PHE     BB  821   2.861   3.800   3.816  0.0573  0.3723  0.0837
    2PHE    SC1  822   2.616   3.954   3.857  0.1729 -0.0933  0.1147
    2PHE    SC2  823   2.492   4.023   4.087 -0.0136 -0.1273  0.0262
    2PHE    SC3  824   2.352   4.010   3.856  0.2008  0.0544 -0.1198
    3TYR     BB  825   3.005   3.675   3.622  0.1885  0.1884  0.0389
    3TYR    SC1  826   2.930   3.691   3.319  0.1775  0.0239  0.0562
    3TYR    SC2  827   2.976   3.824   3.089 -0.1712 -0.2512 -0.1872
    3TYR    SC3  828   2.739   3.701   3.128 -0.2049 -0.0336  0.4168
    1TYR     BB  829   2.813  -1.643   3.583  0.3744  0.0266  0.3974
    1TYR    SC1  830   3.139  -1.570   3.599 -0.0099  0.0168  0.3396
    1TYR    SC2  831   3.321  -1.398   3.699  0.4260 -0.3505  0.2204
    1TYR    SC3  832   3.399  -1.593   3.530 -0.1134 -0.4361  0.0469
    2PHE     BB  833   2.668  -1.331   3.477  0.1457 -0.0238 -0.0244
    2PHE    SC1  834   2.760  -1.146   3.675 -0.1012  0.2173 -0.2043
    2PHE    SC2  835   2.995  -1.081   3.789 -0.0975 -0.1966  0.0492
    2PHE    SC3  836   2.764  -0.997   3.900 -0.0815 -0.2020  0.0870
    3TYR     BB  837   2.448  -1.217   3.220  0.1493  0.0947  0.0244
    3TYR    SC1  838   2.482  -1.464   3.067  0.2068  0.3236 -0.0595
    3TYR    SC2  839   2.612  -1.631   2.899  0.3505  0.1608  0.2054
    3TYR    SC3  840   2.407  -1.723   3.049  0.4128  0.2277  0.3331
    1TYR     BB  841   2.533   7.900   1.491  0.2399  0.1201 -0.2041
    1TYR    SC1  842   2.557   7.775   1.191  0.4957  0.1490  0.2419
    1TYR    SC2  843   2.755   7.781   1.007  0.1145 -0.0570 -0.1995
    1TYR    SC3  844   2.505   7.856   0.939 -0.1077 -0.4309  0.1476
    2PHE     BB  845   2.278   7.729   1.638 -0.0565 -0.3126 -0.1544
    2PHE    SC1  846   2.125   7.957   1.759 -0.3309 -0.1451  0.2410
    2PHE    SC2  847   2.135   8.217   1.686  0.3028 -0.2285 -0.0513
    2PHE    SC3  848   2.107   8.151   1.947  0.2009  0.1289  0.0344
    3TYR     BB  849   2.112   7.488   1.528 -0.1205  0.0486  0.1345
    3TYR    SC1  850   2.155   7.421   1.246  0.4229  0.1547 -0.1316
    3TYR    SC2  851   2.061   7.284   1.033  0.0603  0.3539 -0.1096
    3TYR    SC3  852   2.279   7.441   1.007  0.2128  0.1269 -0.2460
    1TYR     BB  853   1.770   2.298   2.318 -0.0799  0.3199 -0.3072
    1TYR    SC1  854   1.633   2.321   2.045 -0.2463  0.1688  0.0634
    1TYR    SC2  855   1.606   2.174   1.820 -0.2752  0.1624  0.0710
    1TYR    SC3  856   1.433   2.375   1.872 -0.2689  0.1635  0.0878
    2PHE     BB  857   1.843   1.935   2.311  0.0525 -0.0157 -0.1660
    2PHE    SC1  858   1.615   1.869   2.136 -0.0101  0.0112  0.0601
    2PHE    SC2  859   1.415   1.701   2.204  0.1705 -0.3518 -0.2618
    2PHE    SC3  860   1.408   1.830   1.967  0.1392 -0.0649 -0.1095
    3TYR     BB  861   2.118   1.756   2.266  0.1192  0.0638  0.0958
    3TYR    SC1  862   2.385   1.757   2.374 -0.2821  0.1911  0.0944
    3TYR    SC2  863   2.646   1.775   2.438 -0.2173  0.0871 -0.1273
    3TYR    SC3  864   2.458   1.850   2.616 -0.0464 -0.1267  0.1542
    1TYR     BB  865   2.685   2.823   4.774 -0.1081  0.2259 -0.0612
    1TYR    SC1  866   2.537   2.849   5.028 -0.0474  0.2626 -0.0052
    1TYR    SC2  867   2.498   2.841   5.296 -0.0638  0.1822 -0.0098
    1TYR    SC3  868   2.343   2.999   5.142 -0.1843  0.0820  0.0061
    2PHE     BB  869   2.704   2.526   4.648  0.0227  0.1078 -0.1655
    2PHE    SC1  870   2.526   2.339   4.864  0.0624 -0.3784  0.0127
    2PHE    SC2  871   2.322   2.198   4.970 -0.1227  0.0921  0.3206
    2PHE    SC3  872   2.436   2.398   5.111  0.4603 -0.0553  0.0937
    3TYR     BB  873   2.796   2.468   4.401  0.1558 -0.0303 -0.2325
    3TYR    SC1  874   2.985   2.691   4.340  0.0728 -0.0989 -0.0668
    3TYR    SC2  875   3.139   2.722   4.121  0.0766  0.2790 -0.0175
    3TYR    SC3  876   3.059   2.938   4.262 -0.3582  0.0813  0.0579
    1TYR     BB  877   2.295   1.760   4.776 -0.1083 -0.1250  0.3611
    1TYR    SC1  878   2.052   1.692   4.957 -0.1219 -0.2469 -0.1558
    1TYR    SC2  879   1.956   1.716   5.208 -0.1452 -0.0299 -0.1833
    1TYR    SC3  880   1.791   1.644   5.007 -0.1170 -0.2478 -0.1311
    2PHE     BB  881   2.401   1.591   4.602  0.0944 -0.1479  0.0885
    2PHE    SC1  882   2.269   1.583   4.350 -0.2089 -0.3633  0.0075
    2PHE    SC2  883   2.182   1.566   4.095  0.3367  0.1875 -0.2473
    2PHE    SC3  884   2.091   1.763   4.255  0.0223 -0.1360 -0.0096
    3TYR     BB  885   2.700   1.435   4.754 -0.0598 -0.2529  0.0461
    3TYR    SC1  886   2.543   1.197   4.889 -0.0877  0.0233 -0.2070
    3TYR    SC2  887   2.291   1.100   4.880 -0.0396 -0.1013 -0.2396
    3TYR    SC3  888   2.483   0.964   5.012  0.0266 -0.0427 -0.2746
    1TYR     BB  889   3.130   2.272   2.273  0.1547 -0.0117  0.0746
    1TYR    SC1  890   3.355   2.100   2.279 -0.0401 -0.2615  0.3367
    1TYR    SC2  891   3.461   1.924   2.103  0.1955  0.0342  0.1699
    1TYR    SC3  892   3.586   1.973   2.338  0.0330 -0.1487  0.2986
    2PHE     BB  893   2.923   2.022   2.111  0.0236  0.1114  0.2876
    2PHE    SC1  894   2.810   2.076   1.856  0.1316 -0.2396  0.2702
    2PHE    SC2  895   2.912   2.011   1.614 -0.1141 -0.0858  0.1195
    2PHE    SC3  896   2.655   2.092   1.635 -0.0591  0.0302  0.4157
    3TYR     BB  897   3.028   1.742   2.141  0.2866 -0.0151 -0.0998
    3TYR    SC1  898   3.149   1.696   1.860 -0.0339  0.0930 -0.1196
    3TYR    SC2  899   3.137   1.563   1.625 -0.0999 -0.1879  0.0384
    3TYR    SC3  900   3.370   1.575   1.762 -0.0235  0.1010 -0.1062
    1TYR     BB  901   2.755  -2.056   3.236  0.3895 -0.2735  0.0444
    1TYR    SC1  902   3.016  -2.091   3.375  0.1581 -0.2129 -0.1929
    1TYR    SC2  903   3.126  -2.068   3.621 -0.2549  0.2171 -0.0288
    1TYR    SC3  904   3.268  -1.997   3.402  0.0299  0.0722  0.1022
    2PHE     BB  905   2.787  -2.159   2.890  0.2748 -0.2532 -0.1842
    2PHE    SC1  906   2.534  -2.064   2.740  0.2255  0.2770 -0.5265
    2PHE    SC2  907   2.274  -2.005   2.782  0.3196  0.4499 -0.1374
    2PHE    SC3  908   2.345  -2.161   2.573 -0.1415  0.0253 -0.0008
    3TYR     BB  909   2.980  -1.937   2.735  0.0858 -0.0583  0.1875
    3TYR    SC1  910   3.064  -1.718   2.920  0.0570  0.0228 -0.0770
    3TYR    SC2  911   2.994  -1.595   3.150  0.0070  0.3718 -0.2697
    3TYR    SC3  912   3.253  -1.652   3.101  0.0353  0.4295 -0.1903
    1TYR     BB  913   3.436   3.579   2.162 -0.0395 -0.0912 -0.1404
    1TYR    SC1  914   3.388   3.879   2.243 -0.0133 -0.1416  0.3545
    1TYR    SC2  915   3.225   4.090   2.285  0.1572  0.0405  0.1347
    1TYR    SC3  916   3.480   4.095   2.376  0.2454  0.0498 -0.1054
    2PHE     BB  917   3.470   3.492   1.804 -0.1285 -0.0460 -0.1308
    2PHE    SC1  918   3.736   3.353   1.869  0.0598  0.0341  0.0309
    2PHE    SC2  919   3.800   3.096   1.817 -0.1032 -0.0356  0.1645
    2PHE    SC3  920   3.993   3.271   1.890 -0.0096 -0.1496  0.1951
    3TYR     BB  921   3.215   3.489   1.592  0.0159  0.2208 -0.1866
    3TYR    SC1  922   3.119   3.260   1.467  0.2561 -0.2617  0.1683
    3TYR    SC2  923   3.052   2.999   1.470 -0.2034 -0.1607 -0.1002
    3TYR    SC3  924   2.979   3.155   1.263  0.1244  0.1735  0.0208
    1TYR     BB  925   3.608   4.891   3.364  0.0603 -0.1864  0.3621
    1TYR    SC1  926   3.707   4.791   3.659  0.3263  0.4467 -0.0118
    1TYR    SC2  927   3.703   4.563   3.804  0.2270  0.2816 -0.2658
    1TYR    SC3  928   3.813   4.787   3.907  0.2192  0.1525  0.0341
    2PHE     BB  929   3.434   5.152   3.398 -0.2534  0.0717 -0.1368
    2PHE    SC1  930   3.445   5.339   3.171  0.2076  0.3610  0.3915
    2PHE    SC2  931   3.537   5.535   3.011 -0.1307  0.2628  0.0589
    2PHE    SC3  932   3.280   5.456   2.993  0.0059 -0.2492  0.1440
    3TYR     BB  933   3.378   5.207   3.726 -0.2966  0.1353 -0.2241
    3TYR    SC1  934   3.304   4.925   3.889 -0.1735 -0.1141 -0.1017
    3TYR    SC2  935   3.365   4.840   4.138 -0.0511  0.0859 -0.0601
    3TYR    SC3  936   3.255   4.669   3.960  0.2652 -0.1827 -0.0104
    1TYR     BB  937   3.041   1.192   4.478  0.1321  0.3324  0.2343
    1TYR    SC1  938   2.855   0.974   4.556 -0.1439  0.2501  0.2269
    1TYR    SC2  939   2.772   0.771   4.713  0.2078  0.0621  0.1821
    1TYR    SC3  940   2.601   0.885   4.539 -0.0105 -0.1625  0.2418
    2PHE     BB  941   3.238   1.274   4.744 -0.2010 -0.2351 -0.0227
    2PHE    SC1  942   3.097   1.112   4.955  0.2073  0.1235  0.1821
    2PHE    SC2  943   3.149   0.985   5.187  0.0439 -0.1940  0.0530
    2PHE    SC3  944   2.909   1.101   5.148  0.2332  0.2850  0.2183
    3TYR     BB  945   3.456   1.430   4.679  0.3335 -0.1309 -0.2684
    3TYR    SC1  946   3.739   1.377   4.782  0.0173 -0.2610  0.2384
    3TYR    SC2  947   3.918   1.246   4.936  0.2367 -0.0373  0.1819
    3TYR    SC3  948   3.970   1.497   4.852 -0.1493  0.0718  0.2437
    1TYR     BB  949   2.681  -0.034   4.023 -0.1917  0.0540 -0.3881
    1TYR    SC1  950   2.897  -0.077   4.255 -0.0937  0.1006  0.0352
    1TYR    SC2  951   3.122  -0.124   4.397 -0.0866  0.0521  0.0084
    1TYR    SC3  952   2.880  -0.149   4.515 -0.0760  0.2120  0.0676
    2PHE     BB  953   2.834  -0.148   3.769 -0.1620 -0.0065 -0.1520
    2PHE    SC1  954   2.945  -0.395   3.768 -0.0281  0.1013 -0.0972
    2PHE    SC2  955   3.017  -0.655   3.759  0.0734  0.1190  0.1247
    2PHE    SC3  956   3.181  -0.466   3.656 -0.0193  0.0944 -0.0743
    3TYR     BB  957   2.881   0.084   3.534 -0.1982 -0.0443 -0.0252
    3TYR    SC1  958   3.196   0.142   3.552 -0.2296 -0.0788 -0.0570
    3TYR    SC2  959   3.377  -0.053   3.511 -0.1489 -0.0019 -0.0689
    3TYR    SC3  960   3.454   0.183   3.619 -0.1987  0.1120 -0.2763
    1TYR     BB  961   2.753  -0.843   3.219 -0.4804 -0.0653 -0.0150
    1TYR    SC1  962   2.967  -0.923   3.342  0.0341  0.1195 -0.0490
    1TYR    SC2  963   3.139  -1.131   3.354  0.1092  0.1762 -0.1330
    1TYR    SC3  964   3.226  -0.880   3.403  0.0728  0.2168 -0.2707
    2PHE     BB  965   2.550  -0.771   3.421  0.1525  0.0235  0.0663
    2PHE    SC1  966   2.343  -0.919   3.556 -0.0086  0.1924  0.0919
    2PHE    SC2  967   2.300  -1.111   3.741 -0.2143 -0.0433 -0.1896
    2PHE    SC3  968   2.109  -1.054   3.559 -0.1464  0.4168 -0.1304
    3TYR     BB  969   2.577  -0.410   3.355  0.0029 -0.1735 -0.1903
    3TYR    SC1  970   2.402  -0.266   3.515 -0.1248  0.1871 -0.0931
    3TYR    SC2  971   2.179  -0.122   3.465 -0.0787  0.2552 -0.1030
    3TYR    SC3  972   2.385  -0.011   3.600 -0.0560  0.1881 -0.0819
    1TYR     BB  973   2.026   8.004   3.425 -0.2685  0.1098  0.2059
    1TYR    SC1  974   1.823   7.745   3.387 -0.1086 -0.1821  0.1839
    1TYR    SC2  975   1.596   7.638   3.287 -0.2524  0.0426  0.2603
    1TYR    SC3  976   1.704   7.538   3.513 -0.0439 -0.3288  0.0090
    2PHE     BB  977   1.943   8.183   3.210  0.3202 -0.1447  0.0116
    2PHE    SC1  978   1.801   8.063   2.949  0.1451  0.0479 -0.0975
    2PHE    SC2  979   1.587   7.916   2.876  0.1719  0.0002 -0.0797
    2PHE    SC3  980   1.680   8.109   2.712  0.1405 -0.0069 -0.1058
    3TYR     BB  981   2.012   8.522   3.079 -0.2266 -0.0913  0.0004
    3TYR    SC1  982   1.834   8.548   2.841 -0.1032  0.0265  0.0090
    3TYR    SC2  983   1.820   8.692   2.613 -0.0564  0.3245  0.1882
    3TYR    SC3  984   1.610   8.542   2.691 -0.0433  0.1553 -0.0878
    1TYR     BB  985   3.073   0.319   4.032  0.0284 -0.1544  0.0857
    1TYR    SC1  986   3.275   0.081   4.070 -0.0436 -0.0357  0.3287
    1TYR    SC2  987   3.486  -0.079   4.122 -0.0280 -0.1082  0.0588
    1TYR    SC3  988   3.276  -0.175   3.983 -0.2282 -0.0275  0.2980
    2PHE     BB  989   3.034   0.480   4.369  0.0288 -0.0824  0.1784
    2PHE    SC1  990   3.291   0.408   4.492 -0.0321  0.0198 -0.1493
    2PHE    SC2  991   3.554   0.457   4.527 -0.0672  0.0917  0.0231
    2PHE    SC3  992   3.463   0.203   4.527  0.0348  0.0508 -0.2896
    3TYR     BB  993   2.737   0.455   4.345 -0.0889  0.2758 -0.1073
    3TYR    SC1  994   2.474   0.313   4.381  0.0568 -0.1418 -0.1398
    3TYR    SC2  995   2.238   0.289   4.252  0.0315 -0.1993 -0.0834
    3TYR    SC3  996   2.276   0.164   4.488  0.0189  0.0392  0.0499
    1TYR     BB  997   2.545   3.249   3.189  0.2200 -0.0340  0.2972
    1TYR    SC1  998   2.343   3.481   3.103  0.0521  0.0512  0.4308
    1TYR    SC2  999   2.117   3.616   3.166 -0.0377 -0.0653  0.3615
    1TYR    SC3 1000   2.224   3.640   2.919 -0.0779 -0.1524  0.3350
    2PHE     BB 1001   2.594   2.984   3.209  0.3359 -0.0867  0.0788
    2PHE    SC1 1002   2.477   2.899   3.499 -0.1170  0.4766  0.1001
    2PHE    SC2 1003   2.323   2.727   3.639  0.0858  0.2548  0.0604
    2PHE    SC3 1004   2.374   2.973   3.738 -0.1294  0.2613  0.1642
    3TYR     BB 1005   2.810   2.815   2.971 -0.0937  0.0785  0.2866
    3TYR    SC1 1006   2.982   2.547   2.944 -0.1462 -0.1393 -0.0339
    3TYR    SC2 1007   3.087   2.395   2.747 -0.0317  0.0152 -0.0948
    3TYR    SC3 1008   3.209   2.406   2.988 -0.2297 -0.2575  0.0245
    1TYR     BB 1009   2.222   2.581   4.499 -0.1266 -0.0617 -0.5521
    1TYR    SC1 1010   2.173   2.622   4.798  0.0016 -0.0911  0.0178
    1TYR    SC2 1011   2.038   2.792   4.959 -0.0747 -0.0858 -0.0509
    1TYR    SC3 1012   1.987   2.527   4.969  0.2295 -0.1413  0.2445
    2PHE     BB 1013   2.232   2.214   4.426  0.1701  0.1424 -0.0554
    2PHE    SC1 1014   1.953   2.136   4.576 -0.0100  0.2253 -0.0221
    2PHE    SC2 1015   1.853   2.077   4.820  0.1872  0.1046  0.0325
    2PHE    SC3 1016   1.804   1.913   4.611  0.0690  0.1758  0.0033
    3TYR     BB 1017   2.480   2.097   4.358 -0.0899 -0.4631  0.0626
    3TYR    SC1 1018   2.515   1.940   4.114 -0.0394 -0.0538  0.1950
    3TYR    SC2 1019   2.581   1.702   4.006  0.0154 -0.0339  0.1843
    3TYR    SC3 1020   2.401   1.861   3.883 -0.0040 -0.0595  0.1795
    1TYR     BB 1021   1.307   8.418   1.805  0.0208 -0.1579 -0.1070
    1TYR    SC1 1022   1.327   8.664   1.956 -0.0880 -0.1765  0.3242
    1TYR    SC2 1023   1.419   8.839   2.139  0.0649  0.1075 -0.0103
    1TYR    SC3 1024   1.159   8.843   2.068  0.1140  0.3842 -0.1971
    2PHE     BB 1025   1.626   8.313   1.724 -0.2497  0.0955  0.0911
    2PHE    SC1 1026   1.666   8.212   2.000 -0.5749 -0.3355 -0.0143
    2PHE    SC2 1027   1.713   8.043   2.206  0.0562 -0.1797 -0.0058
    2PHE    SC3 1028   1.653   8.302   2.256 -0.1304 -0.2185 -0.0221
    3TYR     BB 1029   1.693   8.152   1.454 -0.3550 -0.0203 -0.2200
    3TYR    SC1 1030   1.953   8.047   1.340  0.1272 -0.0018  0.1916
    3TYR    SC2 1031   2.138   8.137   1.164 -0.1402 -0.2217 -0.2251
    3TYR    SC3 1032   2.088   7.873   1.184 -0.3316 -0.1751 -0.0350
    1TYR     BB 1033   5.558   5.816   3.063 -0.0298  0.0968 -0.3113
    1TYR    SC1 1034   5.505   5.535   3.104 -0.0980  0.0245  0.3240
    1TYR    SC2 1035   5.532   5.268   3.132 -0.0017  0.0034  0.0627
    1TYR    SC3 1036   5.287   5.376   3.102 -0.0152 -0.1164 -0.3305
    2PHE     BB 1037   5.391   5.936   3.315 -0.1233 -0.0917  0.2176
    2PHE    SC1 1038   5.557   6.173   3.464  0.1085 -0.1037 -0.1552
    2PHE    SC2 1039   5.490   6.345   3.660  0.2392 -0.0506 -0.1560
    2PHE    SC3 1040   5.561   6.439   3.417 -0.1597 -0.1215 -0.3103
    3TYR     BB 1041   5.078   5.952   3.436 -0.0273  0.1059  0.2801
    3TYR    SC1 1042   4.936   5.785   3.723  0.3928 -0.2690  0.1779
    3TYR    SC2 1043   4.928   5.653   3.958 -0.1305 -0.1986  0.2137
    3TYR    SC3 1044   4.699   5.730   3.838  0.1395  0.3046 -0.0208
    1TYR     BB 1045   2.586   9.300   1.922 -0.0305 -0.2756  0.1535
    1TYR    SC1 1046   2.584   9.317   1.612  0.2701  0.0755  0.0386
    1TYR    SC2 1047   2.714   9.338   1.377  0.1608 -0.1275 -0.0432
    1TYR    SC3 1048   2.461   9.427   1.399  0.2108 -0.0002  0.0333
    2PHE     BB 1049   2.363   9.105   2.002 -0.1380  0.2994  0.1426
    2PHE    SC1 1050   2.445   8.944   2.224 -0.1018  0.1464  0.3456
    2PHE    SC2 1051   2.459   8.718   2.370 -0.3190 -0.1048 -0.0038
    2PHE    SC3 1052   2.546   8.951   2.474 -0.1318 -0.3346  0.3819
    3TYR     BB 1053   2.255   8.948   1.742  0.1779  0.1297  0.0641
    3TYR    SC1 1054   2.351   8.715   1.557  0.2341 -0.1953  0.1266
    3TYR    SC2 1055   2.410   8.474   1.450  0.4344 -0.2779  0.4122
    3TYR    SC3 1056   2.599   8.666   1.463  0.1426  0.1047 -0.3132
    1TYR     BB 1057   2.828   5.575   2.234 -0.0847  0.0888  0.1581
    1TYR    SC1 1058   2.745   5.287   2.070  0.5207  0.0244  0.0115
    1TYR    SC2 1059   2.810   5.157   1.842 -0.1827 -0.4060  0.0191
    1TYR    SC3 1060   2.725   5.018   2.057  0.0375  0.0238  0.4070
    2PHE     BB 1061   3.091   5.570   2.004  0.1424  0.1641 -0.0711
    2PHE    SC1 1062   2.908   5.595   1.739  0.0000 -0.0846 -0.3368
    2PHE    SC2 1063   2.640   5.564   1.729 -0.0648  0.2958 -0.0447
    2PHE    SC3 1064   2.780   5.599   1.501 -0.2290 -0.0918 -0.2169
    3TYR     BB 1065   3.237   5.313   2.038  0.1209 -0.1853 -0.1148
    3TYR    SC1 1066   3.481   5.286   1.878 -0.0308 -0.0196 -0.0970
    3TYR    SC2 1067   3.740   5.314   1.805  0.0775 -0.0296  0.2617
    3TYR    SC3 1068   3.621   5.073   1.789  0.0127  0.0206 -0.1257
    1TYR     BB 1069   5.819   6.130   2.006 -0.0099 -0.2904  0.0712
    1TYR    SC1 1070   6.021   5.948   2.111  0.0395 -0.1350  0.0816
    1TYR    SC2 1071   6.112   5.697   2.067  0.3767 -0.0027 -0.0217
    1TYR    SC3 1072   6.164   5.821   2.302  0.0014 -0.1091  0.1276
    2PHE     BB 1073   5.533   5.951   2.211  0.3440 -0.0709  0.1276
    2PHE    SC1 1074   5.616   5.698   2.099 -0.3274  0.0114  0.2255
    2PHE    SC2 1075   5.672   5.643   1.840 -0.0709  0.0501  0.2687
    2PHE    SC3 1076   5.630   5.441   2.014  0.0137  0.0157  0.2500
    3TYR     BB 1077   5.570   6.082   2.553 -0.0125 -0.1734 -0.0456
    3TYR    SC1 1078   5.797   5.899   2.608  0.0192  0.2188  0.3055
    3TYR    SC2 1079   6.026   5.804   2.716  0.2581  0.2405 -0.1578
    3TYR    SC3 1080   5.873   5.644   2.561  0.1801  0.3470 -0.1919
    1TYR     BB 1081   3.412   1.898   3.937  0.0731  0.0327  0.3460
    1TYR    SC1 1082   3.160   2.019   4.002  0.1843 -0.0703  0.1980
    1TYR    SC2 1083   2.980   2.067   4.197 -0.0558 -0.0796 -0.0142
    1TYR    SC3 1084   3.035   2.258   4.015 -0.0366 -0.1630 -0.0964
    2PHE     BB 1085   3.453   1.611   3.953 -0.0301  0.3028 -0.1665
    2PHE    SC1 1086   3.777   1.546   3.869 -0.3252  0.1120 -0.1320
    2PHE    SC2 1087   4.015   1.640   3.785 -0.2953  0.1602  0.0026
    2PHE    SC3 1088   3.979   1.375   3.816 -0.1744  0.1665  0.2255
    3TYR     BB 1089   3.430   1.350   4.156 -0.1604  0.0942 -0.0307
    3TYR    SC1 1090   3.694   1.198   4.217  0.0415 -0.1630  0.0082
    3TYR    SC2 1091   3.772   1.113   4.461  0.0067 -0.4132 -0.0642
    3TYR    SC3 1092   3.941   1.093   4.251  0.2877  0.3853  0.0428
    1TYR     BB 1093   2.863   4.322   3.089  0.3580 -0.2900 -0.2541
    1TYR    SC1 1094   2.695   4.167   2.894 -0.1292 -0.1308 -0.1864
    1TYR    SC2 1095   2.554   4.155   2.663 -0.4527  0.0951 -0.0104
    1TYR    SC3 1096   2.508   3.975   2.859 -0.0333 -0.2259 -0.1857
    2PHE     BB 1097   2.875   4.186   3.402 -0.1052 -0.1520  0.2488
    2PHE    SC1 1098   2.611   4.057   3.437 -0.0835  0.1843  0.2035
    2PHE    SC2 1099   2.351   4.065   3.365 -0.0729  0.0250  0.1420
    2PHE    SC3 1100   2.470   3.828   3.415  0.1908  0.0448 -0.3170
    3TYR     BB 1101   3.023   4.294   3.661 -0.3018  0.2512  0.2621
    3TYR    SC1 1102   3.296   4.245   3.812 -0.2418 -0.2445  0.1868
    3TYR    SC2 1103   3.455   4.047   3.905  0.1643 -0.1129 -0.1870
    3TYR    SC3 1104   3.450   4.286   4.031  0.1621 -0.1593 -0.0982
    1TYR     BB 1105   2.264   8.043   2.854 -0.1904 -0.0829 -0.1335
    1TYR    SC1 1106   2.104   8.223   2.692 -0.2770 -0.1429  0.0434
    1TYR    SC2 1107   2.010   8.312   2.455  0.2811 -0.2160 -0.2259
    1TYR    SC3 1108   2.189   8.460   2.594 -0.5680  0.1999  0.5602
    2PHE     BB 1109   2.439   8.241   3.072  0.1182  0.1655  0.1303
    2PHE    SC1 1110   2.473   8.511   2.999 -0.0336  0.0216  0.0659
    2PHE    SC2 1111   2.483   8.774   3.055  0.1733  0.0680 -0.1660
    2PHE    SC3 1112   2.567   8.684   2.815  0.1114 -0.2121 -0.0872
    3TYR     BB 1113   2.566   8.122   3.325  0.0675 -0.1829 -0.1195
    3TYR    SC1 1114   2.506   8.092   3.628 -0.2086 -0.2816 -0.0531
    3TYR    SC2 1115   2.630   8.118   3.867  0.0715 -0.0302 -0.2169
    3TYR    SC3 1116   2.366   8.061   3.857  0.0398  0.0235  0.1507
    1TYR     BB 1117   2.988   6.032   2.289 -0.0757 -0.0136  0.0194
    1TYR    SC1 1118   2.776   6.063   2.110  0.1166 -0.2727  0.1351
    1TYR    SC2 1119   2.731   6.176   1.869  0.1819  0.0349  0.2615
    1TYR    SC3 1120   2.641   5.927   1.919  0.1407 -0.0227 -0.0675
    2PHE     BB 1121   3.277   6.014   2.086 -0.0410 -0.2157  0.3195
    2PHE    SC1 1122   3.143   6.046   1.808  0.2238  0.2346 -0.1113
    2PHE    SC2 1123   3.006   5.982   1.584  0.1752  0.1436 -0.0563
    2PHE    SC3 1124   3.173   6.194   1.584  0.3257  0.0280 -0.2371
    3TYR     BB 1125   3.477   6.181   2.132 -0.2652  0.0406 -0.1385
    3TYR    SC1 1126   3.798   6.122   2.113 -0.0367 -0.1413  0.0471
    3TYR    SC2 1127   4.065   6.139   2.078 -0.0607 -0.1588 -0.1594
    3TYR    SC3 1128   3.907   6.061   1.873 -0.2300 -0.0961 -0.0548
    1TYR     BB 1129   2.670   4.106   1.577  0.0810  0.3851 -0.0623
    1TYR    SC1 1130   2.913   3.966   1.714  0.1072 -0.0605 -0.1273
    1TYR    SC2 1131   3.125   4.088   1.830 -0.2727  0.0817  0.4771
    1TYR    SC3 1132   3.072   3.829   1.884 -0.2315  0.0317  0.2871
    2PHE     BB 1133   2.418   4.061   1.770  0.1260  0.1264 -0.0577
    2PHE    SC1 1134   2.579   3.953   2.033  0.1012 -0.1340  0.1107
    2PHE    SC2 1135   2.701   3.733   2.130  0.0230 -0.1609  0.1484
    2PHE    SC3 1136   2.772   3.977   2.221  0.1329 -0.1677  0.0827
    3TYR     BB 1137   2.133   4.031   1.747 -0.0476 -0.1152 -0.0394
    3TYR    SC1 1138   1.941   4.124   1.538 -0.0523  0.3632 -0.0511
    3TYR    SC2 1139   1.684   4.048   1.504  0.0752 -0.1192 -0.0328
    3TYR    SC3 1140   1.774   4.275   1.389 -0.3752  0.1101  0.0389
    1TYR     BB 1141   2.084   3.073   3.167 -0.1552 -0.0903  0.1997
    1TYR    SC1 1142   1.960   3.010   3.456 -0.2788  0.0279 -0.1676
    1TYR    SC2 1143   1.884   2.810   3.621 -0.0054 -0.1338 -0.2305
    1TYR    SC3 1144   1.907   3.062   3.715  0.0442 -0.2054 -0.0467
    2PHE     BB 1145   2.091   2.757   3.072  0.0601  0.2154 -0.0903
    2PHE    SC1 1146   2.042   2.761   2.806 -0.0649 -0.2641  0.1330
    2PHE    SC2 1147   1.891   2.931   2.660  0.2789  0.0874  0.1665
    2PHE    SC3 1148   1.965   2.693   2.556  0.1015  0.1145 -0.0309
    3TYR     BB 1149   2.251   2.548   3.194 -0.1951 -0.2257 -0.0138
    3TYR    SC1 1150   2.527   2.448   3.275  0.0356  0.0273 -0.1017
    3TYR    SC2 1151   2.773   2.545   3.328  0.0114  0.0897 -0.1037
    3TYR    SC3 1152   2.645   2.395   3.512  0.0507  0.0577 -0.1024
    1TYR     BB 1153   5.166   5.327   2.180  0.4292  0.0381 -0.0920
    1TYR    SC1 1154   5.346   5.035   2.107  0.0727  0.3442  0.2254
    1TYR    SC2 1155   5.597   5.032   2.007  0.2510  0.3147  0.6456
    1TYR    SC3 1156   5.474   4.800   2.072  0.0402  0.3168  0.2858
    2PHE     BB 1157   5.085   5.608   2.158  0.1460 -0.0438 -0.0866
    2PHE    SC1 1158   5.138   5.802   1.933 -0.2218  0.1902  0.1621
    2PHE    SC2 1159   5.276   5.866   1.710 -0.4279  0.1912  0.0317
    2PHE    SC3 1160   5.159   6.060   1.856 -0.1644  0.2057  0.2298
    3TYR     BB 1161   4.761   5.650   2.211  0.0399 -0.0069  0.0530
    3TYR    SC1 1162   4.568   5.493   2.361  0.0961 -0.1541 -0.1103
    3TYR    SC2 1163   4.355   5.328   2.345 -0.2542  0.2729 -0.0846
    3TYR    SC3 1164   4.409   5.457   2.577 -0.1435  0.3913 -0.1753
    1TYR     BB 1165   2.124   7.485   2.041  0.3548  0.2515  0.1135
    1TYR    SC1 1166   2.099   7.765   2.206 -0.2160  0.3136  0.0204
    1TYR    SC2 1167   2.255   7.950   2.327  0.2544 -0.3697  0.5568
    1TYR    SC3 1168   2.040   7.850   2.456 -0.3652  0.1705  0.0358
    2PHE     BB 1169   1.806   7.545   1.946  0.2389 -0.3173  0.0583
    2PHE    SC1 1170   1.668   7.510   2.219 -0.1350 -0.2656  0.0082
    2PHE    SC2 1171   1.411   7.529   2.299 -0.1588  0.1393 -0.1326
    2PHE    SC3 1172   1.606   7.651   2.441 -0.0297 -0.2043 -0.0003
    3TYR     BB 1173   1.715   7.693   1.687 -0.0278  0.1355 -0.2873
    3TYR    SC1 1174   1.630   7.603   1.417  0.1512 -0.2493  0.3623
    3TYR    SC2 1175   1.417   7.586   1.252  0.0371  0.4217  0.4045
    3TYR    SC3 1176   1.665   7.619   1.151  0.0786  0.0489  0.3664
   7.65584   7.65584   7.65584
