Generated by trjconv : Martini system from ../2_Creating_coordinates/TYR-GLY-TYR_aa.pdb t=   0.00000
  774
    1TYR     BB    1   5.085   4.770   6.364  0.2470 -0.1922  0.1131
    1TYR    SC1    2   5.401   4.736   6.340 -0.2248 -0.1498  0.3392
    1TYR    SC2    3   5.565   4.523   6.360 -0.2158 -0.1629  0.1511
    1TYR    SC3    4   5.640   4.737   6.214 -0.3525 -0.1565  0.0884
    2GLY     BB    5   4.877   4.688   6.228  0.0841  0.4909  0.3856
    3TYR     BB    6   4.638   4.801   6.134  0.1145  0.0621  0.0060
    3TYR    SC1    7   4.611   5.097   6.272 -0.1444  0.0724 -0.0824
    3TYR    SC2    8   4.607   5.337   6.397  0.0343 -0.0551  0.1813
    3TYR    SC3    9   4.823   5.263   6.253 -0.1714  0.0919 -0.2243
    1TYR     BB   10   4.336   1.811   5.368 -0.0318  0.0784 -0.0018
    1TYR    SC1   11   4.359   1.619   5.596 -0.1050  0.1519  0.0842
    1TYR    SC2   12   4.235   1.534   5.820 -0.3452  0.2732  0.0013
    1TYR    SC3   13   4.400   1.367   5.686 -0.1426  0.2209  0.3026
    2GLY     BB   14   4.411   1.859   5.144  0.2849  0.0311  0.1812
    3TYR     BB   15   4.445   2.020   4.877  0.0040  0.1397 -0.1119
    3TYR    SC1   16   4.424   1.851   4.651 -0.2031  0.0364  0.1064
    3TYR    SC2   17   4.487   1.719   4.425  0.3430 -0.1040  0.3207
    3TYR    SC3   18   4.303   1.617   4.593  0.0811 -0.1011  0.0462
    1TYR     BB   19   4.717   4.570   3.660  0.2683 -0.0533 -0.3025
    1TYR    SC1   20   4.450   4.710   3.518 -0.1661  0.0427 -0.2544
    1TYR    SC2   21   4.297   4.588   3.331  0.0087  0.0212 -0.3863
    1TYR    SC3   22   4.268   4.853   3.378 -0.1387 -0.0025 -0.3366
    2GLY     BB   23   4.771   4.322   3.636 -0.1422  0.1599 -0.1322
    3TYR     BB   24   4.788   4.100   3.825  0.4108 -0.0103  0.1535
    3TYR    SC1   25   4.927   4.116   4.099  0.0683 -0.0525 -0.0835
    3TYR    SC2   26   4.970   3.977   4.326  0.0807 -0.0386 -0.0774
    3TYR    SC3   27   5.100   4.210   4.284  0.0700 -0.0356 -0.0937
    1TYR     BB   28   4.433   1.927   3.545 -0.1086 -0.1387  0.0415
    1TYR    SC1   29   4.541   1.855   3.256  0.2121  0.2021  0.0925
    1TYR    SC2   30   4.767   1.809   3.115 -0.0410  0.2451 -0.3514
    1TYR    SC3   31   4.532   1.708   3.030 -0.1942  0.1679  0.1224
    2GLY     BB   32   4.660   2.037   3.721 -0.2547  0.1341  0.0301
    3TYR     BB   33   4.957   1.913   3.598  0.1426  0.0568  0.4694
    3TYR    SC1   34   5.146   2.157   3.461  0.4371 -0.0043  0.2454
    3TYR    SC2   35   5.100   2.400   3.352  0.0449 -0.1183  0.1364
    3TYR    SC3   36   5.347   2.292   3.341  0.1568  0.1444 -0.0809
    1TYR     BB   37   6.039   5.330   4.836  0.3464 -0.4559  0.1583
    1TYR    SC1   38   6.323   5.330   4.814  0.3145 -0.0824  0.0225
    1TYR    SC2   39   6.551   5.414   4.931  0.0891  0.4006  0.1490
    1TYR    SC3   40   6.535   5.401   4.662  0.3635  0.0280  0.1403
    2GLY     BB   41   5.846   5.297   4.981 -0.3210  0.1042  0.2188
    3TYR     BB   42   5.643   5.391   5.162  0.2644 -0.0685 -0.0935
    3TYR    SC1   43   5.437   5.212   5.292 -0.0774  0.0815  0.1010
    3TYR    SC2   44   5.390   4.974   5.409  0.0198 -0.0427 -0.1064
    3TYR    SC3   45   5.211   5.076   5.235 -0.0823  0.0989  0.0783
    1TYR     BB   46   6.183   2.871   4.678  0.0991  0.2427 -0.0270
    1TYR    SC1   47   6.102   2.713   4.940 -0.4845 -0.1109  0.0784
    1TYR    SC2   48   6.077   2.507   5.113 -0.1074 -0.1254  0.1260
    1TYR    SC3   49   6.302   2.657   5.113 -0.3722  0.2942  0.0936
    2GLY     BB   50   5.999   2.962   4.551  0.4202 -0.3211 -0.1593
    3TYR     BB   51   5.801   2.957   4.318 -0.0386 -0.0810 -0.2038
    3TYR    SC1   52   5.955   2.923   4.085 -0.1572 -0.4642  0.1714
    3TYR    SC2   53   6.200   2.954   3.975 -0.2289  0.0777  0.1339
    3TYR    SC3   54   6.051   2.738   3.913  0.0791 -0.0634 -0.1506
    1TYR     BB   55   4.007   2.936   4.743 -0.0772 -0.1438  0.0385
    1TYR    SC1   56   4.211   2.908   4.528 -0.0353  0.1269  0.0098
    1TYR    SC2   57   4.188   2.911   4.259 -0.1361 -0.1035  0.0122
    1TYR    SC3   58   4.413   2.815   4.374  0.0753  0.3565  0.0117
    2GLY     BB   59   4.056   3.128   4.965 -0.0972  0.0029  0.1330
    3TYR     BB   60   4.137   3.450   5.049  0.0142  0.2308 -0.0257
    3TYR    SC1   61   3.920   3.650   5.098 -0.1575 -0.1754 -0.1481
    3TYR    SC2   62   3.734   3.827   5.015 -0.1869 -0.0676  0.1314
    3TYR    SC3   63   3.666   3.569   5.055 -0.2258 -0.0716  0.0427
    1TYR     BB   64   4.981   2.125   4.155  0.3536 -0.0239  0.0588
    1TYR    SC1   65   5.050   2.338   3.942  0.0328 -0.3516  0.1215
    1TYR    SC2   66   5.153   2.586   3.967 -0.5906 -0.0482 -0.0561
    1TYR    SC3   67   5.271   2.406   3.803 -0.0438  0.0607  0.1867
    2GLY     BB   68   4.717   2.174   4.285  0.1325  0.1204  0.2242
    3TYR     BB   69   4.716   2.361   4.524  0.1139  0.0090  0.2267
    3TYR    SC1   70   4.848   2.325   4.806 -0.2187 -0.0824  0.0549
    3TYR    SC2   71   4.961   2.475   5.000 -0.1454  0.0698 -0.1011
    3TYR    SC3   72   5.031   2.215   4.972 -0.1045  0.0655  0.0295
    1TYR     BB   73   4.948   4.658   5.456  0.2831  0.0791  0.0365
    1TYR    SC1   74   4.770   4.861   5.297  0.0297  0.0499 -0.1284
    1TYR    SC2   75   4.547   4.999   5.233  0.0226  0.1044  0.0095
    1TYR    SC3   76   4.788   5.086   5.149  0.0206  0.2163  0.1174
    2GLY     BB   77   5.076   4.774   5.745 -0.0088  0.2222  0.2268
    3TYR     BB   78   5.230   4.615   5.902  0.1205  0.3668 -0.0337
    3TYR    SC1   79   5.218   4.328   6.044 -0.0676 -0.0595  0.0994
    3TYR    SC2   80   5.066   4.120   6.127  0.0038 -0.0787  0.1839
    3TYR    SC3   81   5.225   4.250   6.303  0.3595 -0.2880  0.0310
    1TYR     BB   82   5.557   4.829   4.974 -0.1545 -0.4864 -0.1200
    1TYR    SC1   83   5.295   4.681   4.996 -0.2473  0.1996  0.0080
    1TYR    SC2   84   5.036   4.607   5.020 -0.1269 -0.1934  0.2019
    1TYR    SC3   85   5.231   4.420   5.022  0.1527  0.0734 -0.1725
    2GLY     BB   86   5.766   4.826   5.114 -0.1306 -0.0436  0.4386
    3TYR     BB   87   5.937   4.582   5.318 -0.2345 -0.0827  0.4568
    3TYR    SC1   88   6.054   4.622   5.598  0.2533 -0.2107 -0.0090
    3TYR    SC2   89   6.213   4.553   5.805  0.3612  0.3410  0.1122
    3TYR    SC3   90   6.024   4.743   5.838 -0.2232 -0.1662 -0.0784
    1TYR     BB   91   2.477   2.782   4.166  0.1171 -0.1240 -0.0164
    1TYR    SC1   92   2.418   2.503   4.290 -0.1996  0.0409  0.1292
    1TYR    SC2   93   2.411   2.293   4.459 -0.1031 -0.0764 -0.0095
    1TYR    SC3   94   2.234   2.307   4.256 -0.0535 -0.0685 -0.0525
    2GLY     BB   95   2.374   3.025   4.202 -0.0131 -0.0320  0.1144
    3TYR     BB   96   2.581   3.329   4.037  0.0161  0.1522  0.1382
    3TYR    SC1   97   2.655   3.221   3.796  0.1504  0.1245 -0.1336
    3TYR    SC2   98   2.626   3.023   3.615 -0.2645 -0.0119  0.0701
    3TYR    SC3   99   2.736   3.258   3.541  0.1463 -0.2764 -0.2001
    1TYR     BB  100   6.828   4.449   4.812  0.1546  0.0376 -0.0044
    1TYR    SC1  101   6.974   4.276   4.563 -0.0591 -0.0353  0.1323
    1TYR    SC2  102   6.815   4.152   4.383  0.0092 -0.3618  0.2881
    1TYR    SC3  103   7.081   4.172   4.338 -0.0339 -0.0361  0.1446
    2GLY     BB  104   6.491   4.265   4.838 -0.0121  0.1190 -0.2124
    3TYR     BB  105   6.218   4.351   4.919  0.0723  0.1366 -0.3608
    3TYR    SC1  106   5.940   4.313   4.816  0.0547 -0.0038 -0.1822
    3TYR    SC2  107   5.745   4.324   4.630 -0.1929 -0.4344  0.0319
    3TYR    SC3  108   5.683   4.346   4.892  0.1306  0.0022  0.0860
    1TYR     BB  109   4.228   2.268   4.472  0.3169 -0.5216  0.0594
    1TYR    SC1  110   4.249   2.095   4.238  0.1799 -0.0726 -0.0211
    1TYR    SC2  111   4.341   1.915   4.060  0.1722 -0.3559  0.2510
    1TYR    SC3  112   4.124   1.858   4.210  0.0737 -0.0507  0.2321
    2GLY     BB  113   3.961   2.452   4.516  0.0940  0.1785 -0.0878
    3TYR     BB  114   3.736   2.526   4.664  0.3309 -0.1718  0.1815
    3TYR    SC1  115   3.518   2.726   4.626 -0.0788 -0.2075  0.1485
    3TYR    SC2  116   3.352   2.805   4.427  0.2111 -0.1456 -0.0772
    3TYR    SC3  117   3.276   2.831   4.685 -0.0103  0.1554 -0.1659
    1TYR     BB  118   2.752   2.768   4.580 -0.0363 -0.3336 -0.0012
    1TYR    SC1  119   2.478   2.777   4.699 -0.1509  0.0416 -0.0126
    1TYR    SC2  120   2.230   2.880   4.732 -0.0635  0.1993  0.1823
    1TYR    SC3  121   2.270   2.614   4.753 -0.2359  0.1569  0.0142
    2GLY     BB  122   2.877   2.586   4.458 -0.0447 -0.1962 -0.0418
    3TYR     BB  123   2.914   2.371   4.284  0.0404 -0.3737  0.1304
    3TYR    SC1  124   2.765   2.191   4.109 -0.3696 -0.0203  0.1131
    3TYR    SC2  125   2.621   1.962   4.117 -0.2778 -0.0774  0.1529
    3TYR    SC3  126   2.539   2.168   3.962 -0.1615 -0.2738 -0.1830
    1TYR     BB  127   4.104   1.118   5.368  0.0914  0.1370 -0.0628
    1TYR    SC1  128   4.337   1.229   5.197  0.0257  0.0481  0.1646
    1TYR    SC2  129   4.481   1.369   5.017  0.0810 -0.2615 -0.0428
    1TYR    SC3  130   4.592   1.299   5.254 -0.0882  0.4055  0.2633
    2GLY     BB  131   3.924   1.338   5.435 -0.0593 -0.1766  0.2773
    3TYR     BB  132   3.610   1.328   5.535 -0.2272 -0.0836  0.2872
    3TYR    SC1  133   3.461   1.563   5.460 -0.1814 -0.1116 -0.0805
    3TYR    SC2  134   3.224   1.666   5.540 -0.1190 -0.2632  0.3297
    3TYR    SC3  135   3.406   1.824   5.419 -0.3321 -0.0875  0.2310
    1TYR     BB  136   5.939   3.998   4.308  0.0668  0.0433 -0.0890
    1TYR    SC1  137   5.885   3.930   4.019 -0.1868 -0.3006  0.1387
    1TYR    SC2  138   5.964   3.897   3.763 -0.0797  0.1401  0.1059
    1TYR    SC3  139   5.704   3.945   3.818 -0.1272 -0.0931  0.0982
    2GLY     BB  140   6.177   4.024   4.490  0.1530 -0.0515  0.1843
    3TYR     BB  141   6.407   3.867   4.591  0.2039  0.0918 -0.1954
    3TYR    SC1  142   6.459   3.569   4.629 -0.1496 -0.0576 -0.3217
    3TYR    SC2  143   6.591   3.416   4.809 -0.1174  0.3124 -0.0143
    3TYR    SC3  144   6.468   3.301   4.597  0.1829 -0.0970  0.0199
    1TYR     BB  145   4.329   4.360   6.766  0.2679  0.0612 -0.0618
    1TYR    SC1  146   4.222   4.635   6.703  0.0469  0.0852  0.0683
    1TYR    SC2  147   4.016   4.704   6.542  0.0959  0.0001 -0.0329
    1TYR    SC3  148   4.250   4.838   6.527  0.1191 -0.0445 -0.0734
    2GLY     BB  149   4.193   4.228   6.943  0.0053 -0.3303 -0.1552
    3TYR     BB  150   3.891   4.157   7.045 -0.4044  0.0755  0.0798
    3TYR    SC1  151   3.796   3.897   6.864  0.1235  0.0815  0.0009
    3TYR    SC2  152   3.764   3.672   6.719  0.0964 -0.0401  0.1915
    3TYR    SC3  153   3.564   3.852   6.733  0.1353  0.0211  0.0003
    1TYR     BB  154   6.241   4.075   5.466 -0.1347 -0.0270 -0.2023
    1TYR    SC1  155   6.307   4.079   5.758  0.0630 -0.2114 -0.1237
    1TYR    SC2  156   6.469   3.992   5.956 -0.0399  0.2361  0.1759
    1TYR    SC3  157   6.260   4.153   6.013 -0.2726  0.1133 -0.2684
    2GLY     BB  158   5.966   4.122   5.309  0.1928  0.0606 -0.0133
    3TYR     BB  159   5.694   4.064   5.285 -0.1400 -0.0941 -0.0877
    3TYR    SC1  160   5.488   4.292   5.328  0.1249 -0.1740 -0.0292
    3TYR    SC2  161   5.278   4.351   5.486 -0.0589  0.4469 -0.4574
    3TYR    SC3  162   5.488   4.519   5.473  0.3831 -0.0503 -0.2127
    1TYR     BB  163   6.365   3.755   4.062 -0.2244 -0.0724  0.1642
    1TYR    SC1  164   6.160   3.599   4.208  0.0713  0.0922  0.0567
    1TYR    SC2  165   6.193   3.331   4.205 -0.4302  0.0199 -0.1824
    1TYR    SC3  166   6.054   3.448   4.405 -0.2805  0.0961 -0.1209
    2GLY     BB  167   6.374   4.092   4.029 -0.0199  0.0231 -0.1819
    3TYR     BB  168   6.271   4.269   3.847 -0.0419 -0.2126 -0.2726
    3TYR    SC1  169   6.011   4.370   3.699 -0.0199  0.2749  0.1198
    3TYR    SC2  170   5.783   4.509   3.738 -0.1724  0.0928 -0.0960
    3TYR    SC3  171   5.894   4.497   3.492 -0.0914 -0.0605 -0.0540
    1TYR     BB  172   3.433   2.272   4.372 -0.2184  0.0055 -0.0959
    1TYR    SC1  173   3.651   2.300   4.175 -0.1634  0.2508 -0.3158
    1TYR    SC2  174   3.721   2.372   3.924 -0.1268 -0.2499 -0.4640
    1TYR    SC3  175   3.834   2.156   4.038 -0.1705 -0.0532 -0.0207
    2GLY     BB  176   3.247   2.031   4.359 -0.0607 -0.0398 -0.0791
    3TYR     BB  177   3.149   1.808   4.309 -0.1375 -0.0243 -0.1003
    3TYR    SC1  178   3.052   1.757   4.035  0.1133  0.0268  0.0477
    3TYR    SC2  179   2.932   1.864   3.818  0.2039  0.0151 -0.0086
    3TYR    SC3  180   3.113   1.665   3.789  0.4963  0.2638  0.0435
    1TYR     BB  181   5.203   3.823   3.841 -0.1688 -0.2998 -0.1716
    1TYR    SC1  182   5.301   4.072   3.683  0.3488 -0.1165 -0.1830
    1TYR    SC2  183   5.207   4.254   3.506 -0.3066 -0.0569  0.1823
    1TYR    SC3  184   5.467   4.259   3.580 -0.2480  0.5804  0.0089
    2GLY     BB  185   5.312   3.598   3.784 -0.0746 -0.0424 -0.0122
    3TYR     BB  186   5.342   3.360   3.673  0.2788  0.1429 -0.1005
    3TYR    SC1  187   5.151   3.332   3.421  0.0875  0.4427  0.1424
    3TYR    SC2  188   4.925   3.268   3.288  0.1522  0.1670  0.1585
    3TYR    SC3  189   5.134   3.377   3.155  0.2388 -0.1602  0.0128
    1TYR     BB  190   4.174   3.854   6.468  0.0662  0.2208 -0.0689
    1TYR    SC1  191   3.984   4.075   6.473  0.2120  0.2031 -0.1447
    1TYR    SC2  192   3.841   4.235   6.308  0.1433  0.0560 -0.2304
    1TYR    SC3  193   3.853   4.290   6.572  0.1398  0.2146 -0.2622
    2GLY     BB  194   4.460   3.883   6.597 -0.0530 -0.2235  0.0492
    3TYR     BB  195   4.660   3.823   6.666  0.2411 -0.0087  0.0212
    3TYR    SC1  196   4.979   3.824   6.551  0.1750 -0.1562  0.0012
    3TYR    SC2  197   5.240   3.889   6.572  0.0536  0.4012 -0.0242
    3TYR    SC3  198   5.157   3.728   6.372  0.4042 -0.0229  0.1517
    1TYR     BB  199   4.417   4.269   4.050  0.1119 -0.2015  0.1759
    1TYR    SC1  200   4.428   4.006   4.166 -0.2195 -0.1386  0.1375
    1TYR    SC2  201   4.538   3.842   4.350  0.1144  0.0657  0.1302
    1TYR    SC3  202   4.545   3.775   4.088  0.1889  0.0595  0.1336
    2GLY     BB  203   4.305   4.248   3.761 -0.0939 -0.2619 -0.1449
    3TYR     BB  204   4.336   3.968   3.588 -0.0253 -0.0814  0.3428
    3TYR    SC1  205   4.378   4.051   3.306 -0.0846 -0.0001  0.0864
    3TYR    SC2  206   4.549   4.216   3.178 -0.0760 -0.2515 -0.2424
    3TYR    SC3  207   4.315   4.148   3.062 -0.3187 -0.0678  0.1172
    1TYR     BB  208   4.127   4.233   4.964 -0.1048 -0.1783 -0.0054
    1TYR    SC1  209   4.096   4.481   5.135  0.0754  0.1446 -0.1744
    1TYR    SC2  210   3.900   4.602   5.276  0.0300 -0.0628 -0.0548
    1TYR    SC3  211   4.097   4.750   5.165 -0.2426  0.1602 -0.2594
    2GLY     BB  212   4.326   4.044   5.058 -0.1991 -0.0285 -0.0749
    3TYR     BB  213   4.504   3.871   5.006 -0.0844  0.1076  0.3049
    3TYR    SC1  214   4.599   3.597   5.113 -0.3688 -0.0859 -0.0671
    3TYR    SC2  215   4.772   3.389   5.097 -0.1602  0.0845 -0.0815
    3TYR    SC3  216   4.575   3.387   5.282 -0.1180 -0.0944 -0.0367
    1TYR     BB  217   5.902   2.474   4.518 -0.0877 -0.1284 -0.1651
    1TYR    SC1  218   5.829   2.472   4.236 -0.0837 -0.0254  0.0999
    1TYR    SC2  219   5.600   2.480   4.092  0.0767  0.0966 -0.1569
    1TYR    SC3  220   5.790   2.297   4.035  0.0369 -0.0198  0.0706
    2GLY     BB  221   5.680   2.592   4.715  0.1046 -0.1418  0.3441
    3TYR     BB  222   5.428   2.552   4.978 -0.0726  0.2123  0.1841
    3TYR    SC1  223   5.611   2.461   5.217  0.1870 -0.2059 -0.0889
    3TYR    SC2  224   5.746   2.585   5.415  0.1339 -0.0452 -0.1506
    3TYR    SC3  225   5.671   2.327   5.443  0.0354  0.0051  0.0817
    1TYR     BB  226   3.645   2.782   5.602 -0.1098 -0.0608 -0.0462
    1TYR    SC1  227   3.419   2.677   5.366  0.0679 -0.3153 -0.0865
    1TYR    SC2  228   3.460   2.650   5.100 -0.1049  0.0746 -0.1620
    1TYR    SC3  229   3.220   2.733   5.192 -0.0557 -0.0822  0.1225
    2GLY     BB  230   3.895   2.714   5.546  0.0069  0.1733  0.3829
    3TYR     BB  231   3.954   2.716   5.231 -0.0068 -0.1551 -0.2403
    3TYR    SC1  232   4.228   2.640   5.110 -0.0808 -0.2086 -0.0043
    3TYR    SC2  233   4.271   2.540   4.863  0.2653 -0.1279  0.0171
    3TYR    SC3  234   4.457   2.507   5.056  0.2792  0.3302  0.0946
    1TYR     BB  235   6.798   3.552   4.237  0.2958 -0.0420 -0.2726
    1TYR    SC1  236   6.708   3.256   4.237 -0.0986  0.0508 -0.4006
    1TYR    SC2  237   6.549   3.039   4.214  0.1601 -0.1993  0.0087
    1TYR    SC3  238   6.791   3.017   4.330  0.2523  0.2897 -0.0625
    2GLY     BB  239   7.041   3.681   4.307 -0.0280 -0.1486  0.0858
    3TYR     BB  240   7.289   3.725   4.462 -0.0573  0.1142 -0.3086
    3TYR    SC1  241   7.312   3.976   4.674 -0.0743 -0.1107  0.1547
    3TYR    SC2  242   7.246   4.117   4.894 -0.1811 -0.0898  0.1100
    3TYR    SC3  243   7.461   4.189   4.748 -0.1125 -0.1010  0.2040
    1TYR     BB  244   3.192   2.604   6.116 -0.1236  0.0827  0.2016
    1TYR    SC1  245   3.303   2.500   6.367 -0.2415 -0.2060  0.0272
    1TYR    SC2  246   3.515   2.416   6.512  0.0096 -0.0160 -0.2143
    1TYR    SC3  247   3.305   2.535   6.634 -0.0102 -0.2959  0.0402
    2GLY     BB  248   3.442   2.789   6.041  0.2247 -0.1520 -0.1052
    3TYR     BB  249   3.434   3.197   6.011  0.1253 -0.1564 -0.2554
    3TYR    SC1  250   3.149   3.242   5.958 -0.0121 -0.2730 -0.2476
    3TYR    SC2  251   2.936   3.409   5.959  0.0932 -0.1349 -0.0546
    3TYR    SC3  252   2.902   3.147   5.904 -0.1251 -0.1124 -0.0371
    1TYR     BB  253   3.937   2.783   6.395  0.0715  0.1639  0.0965
    1TYR    SC1  254   4.019   2.864   6.094 -0.0345  0.0539 -0.1506
    1TYR    SC2  255   4.169   2.938   5.881 -0.2649 -0.3457 -0.4695
    1TYR    SC3  256   3.926   3.049   5.921  0.0443  0.2376 -0.0014
    2GLY     BB  257   3.728   2.873   6.421  0.2998 -0.0648  0.0033
    3TYR     BB  258   3.460   3.029   6.638 -0.0092  0.1023  0.3860
    3TYR    SC1  259   3.596   3.238   6.841 -0.0701  0.3941 -0.0132
    3TYR    SC2  260   3.495   3.346   7.067  0.0469  0.1222  0.1764
    3TYR    SC3  261   3.762   3.343   7.026  0.0283  0.1401  0.0480
    1TYR     BB  262   4.837   1.650   5.593  0.2091  0.0207  0.1005
    1TYR    SC1  263   4.779   1.592   5.907  0.0411  0.0299  0.0683
    1TYR    SC2  264   4.604   1.503   6.093  0.1423  0.0396  0.1697
    1TYR    SC3  265   4.869   1.467   6.129  0.1559 -0.1081 -0.0541
    2GLY     BB  266   4.781   1.931   5.506  0.1324  0.0764 -0.0904
    3TYR     BB  267   4.720   2.178   5.373  0.0767  0.2000 -0.5012
    3TYR    SC1  268   4.446   2.294   5.438 -0.1940 -0.1442  0.0684
    3TYR    SC2  269   4.335   2.467   5.613 -0.0576  0.0184 -0.0014
    3TYR    SC3  270   4.178   2.322   5.448 -0.1789 -0.0162  0.1414
    1TYR     BB  271   3.989   1.933   3.671  0.1978  0.0148  0.0633
    1TYR    SC1  272   3.765   1.729   3.838  0.0329 -0.4679 -0.1401
    1TYR    SC2  273   3.668   1.748   4.089  0.2059 -0.4388 -0.0740
    1TYR    SC3  274   3.552   1.581   3.912  0.0113 -0.3740 -0.0105
    2GLY     BB  275   3.883   2.168   3.459  0.2732 -0.0884  0.1586
    3TYR     BB  276   4.107   2.212   3.279 -0.0910 -0.4990  0.1502
    3TYR    SC1  277   4.152   1.936   3.092  0.1688  0.1492  0.1396
    3TYR    SC2  278   4.125   1.725   2.927  0.0512  0.1884  0.1079
    3TYR    SC3  279   4.101   1.691   3.193 -0.1383  0.1891  0.0928
    1TYR     BB  280   4.625   2.332   6.677 -0.4248  0.0664 -0.0666
    1TYR    SC1  281   4.679   2.099   6.460 -0.0061 -0.0500 -0.1432
    1TYR    SC2  282   4.581   1.874   6.348  0.0001 -0.1590  0.0648
    1TYR    SC3  283   4.848   1.913   6.361 -0.0032 -0.0680 -0.1045
    2GLY     BB  284   4.398   2.510   6.452  0.1687  0.1760 -0.1247
    3TYR     BB  285   4.313   2.492   6.187  0.0644  0.2168 -0.2421
    3TYR    SC1  286   4.088   2.359   6.088  0.0368 -0.0831 -0.0900
    3TYR    SC2  287   3.829   2.432   6.059 -0.0166 -0.2913 -0.1611
    3TYR    SC3  288   3.963   2.323   5.852  0.2084  0.0459 -0.2028
    1TYR     BB  289   5.113   4.554   3.956  0.0313 -0.1452 -0.4541
    1TYR    SC1  290   5.397   4.419   4.050  0.1379 -0.1507 -0.1894
    1TYR    SC2  291   5.459   4.163   4.108  0.5152 -0.0972 -0.3131
    1TYR    SC3  292   5.610   4.364   4.207  0.0320  0.1112  0.0569
    2GLY     BB  293   4.865   4.630   4.120  0.1156  0.2498  0.0095
    3TYR     BB  294   4.673   4.670   4.265 -0.0056 -0.1141 -0.1954
    3TYR    SC1  295   4.645   4.418   4.463  0.0828 -0.0889 -0.2677
    3TYR    SC2  296   4.417   4.306   4.555  0.1233 -0.2762 -0.3890
    3TYR    SC3  297   4.651   4.172   4.575  0.2144 -0.1101 -0.3187
    1TYR     BB  298   4.277   5.026   4.799  0.1581  0.0343  0.2063
    1TYR    SC1  299   4.383   5.154   4.545 -0.0550 -0.0777 -0.0754
    1TYR    SC2  300   4.292   5.250   4.309 -0.0430 -0.0983 -0.0884
    1TYR    SC3  301   4.550   5.172   4.333 -0.1745 -0.6279 -0.2361
    2GLY     BB  302   4.547   4.790   4.789  0.3934  0.2515 -0.2066
    3TYR     BB  303   4.516   4.557   4.929 -0.0466 -0.0690 -0.1899
    3TYR    SC1  304   4.668   4.363   5.120 -0.0461 -0.0927 -0.0047
    3TYR    SC2  305   4.864   4.193   5.044  0.0544 -0.0199  0.0885
    3TYR    SC3  306   4.757   4.174   5.291  0.0398  0.0279  0.0860
    1TYR     BB  307   4.272   3.023   5.409 -0.1006 -0.2717 -0.0993
    1TYR    SC1  308   4.524   2.905   5.379  0.0276 -0.0586 -0.0022
    1TYR    SC2  309   4.733   2.736   5.358  0.2346  0.2305 -0.4581
    1TYR    SC3  310   4.776   3.001   5.381 -0.0875  0.2567  0.0109
    2GLY     BB  311   4.071   3.203   5.485 -0.0405  0.5194  0.3109
    3TYR     BB  312   3.780   3.240   5.368 -0.2663 -0.2168  0.1080
    3TYR    SC1  313   3.556   3.148   5.198  0.1082  0.1327 -0.0116
    3TYR    SC2  314   3.304   3.176   5.106 -0.0198 -0.0233  0.2732
    3TYR    SC3  315   3.505   3.125   4.934 -0.2068 -0.0583  0.0587
    1TYR     BB  316   3.826   1.789   5.772  0.0902 -0.2482  0.0629
    1TYR    SC1  317   3.771   1.927   6.032  0.0608 -0.2367  0.1385
    1TYR    SC2  318   3.635   2.075   6.212 -0.1019 -0.0883 -0.0987
    1TYR    SC3  319   3.737   1.835   6.284  0.1703  0.1300  0.2955
    2GLY     BB  320   3.911   1.875   5.553  0.1536  0.2857  0.0922
    3TYR     BB  321   3.890   1.806   5.233  0.1528 -0.1125  0.1724
    3TYR    SC1  322   3.956   1.656   4.985 -0.2761  0.2982 -0.2910
    3TYR    SC2  323   3.754   1.494   4.908 -0.2187 -0.1569  0.4025
    3TYR    SC3  324   4.010   1.414   4.879 -0.1357  0.2105 -0.0298
    1TYR     BB  325   3.420   3.241   4.203  0.3754 -0.2334 -0.4343
    1TYR    SC1  326   3.595   3.013   4.122  0.2805 -0.0272 -0.2270
    1TYR    SC2  327   3.801   2.898   3.990  0.0724 -0.3419 -0.2925
    1TYR    SC3  328   3.727   2.805   4.232  0.1758 -0.0497 -0.1421
    2GLY     BB  329   3.530   3.541   4.149  0.1403 -0.1553 -0.1824
    3TYR     BB  330   3.488   3.790   4.042  0.1379  0.1966  0.4532
    3TYR    SC1  331   3.426   4.013   4.227 -0.0658  0.0831  0.0901
    3TYR    SC2  332   3.523   4.161   4.431 -0.3070 -0.0298  0.2932
    3TYR    SC3  333   3.286   4.224   4.319 -0.2820 -0.1014  0.1987
    1TYR     BB  334   2.803   2.582   2.657  0.0033 -0.0989 -0.0489
    1TYR    SC1  335   2.656   2.347   2.841 -0.1274 -0.0041  0.2263
    1TYR    SC2  336   2.693   2.091   2.918 -0.3472 -0.2056 -0.2810
    1TYR    SC3  337   2.450   2.206   2.944 -0.2056  0.0322  0.1210
    2GLY     BB  338   3.071   2.515   2.630  0.0281 -0.0570  0.1651
    3TYR     BB  339   3.298   2.599   2.692 -0.0106 -0.3437 -0.2815
    3TYR    SC1  340   3.563   2.526   2.539  0.2299  0.1200  0.2260
    3TYR    SC2  341   3.819   2.522   2.452  0.1738 -0.2060  0.0545
    3TYR    SC3  342   3.616   2.538   2.274  0.0698 -0.0919  0.1809
    1TYR     BB  343   3.009   2.416   3.115  0.2830 -0.0929  0.1525
    1TYR    SC1  344   2.731   2.566   3.253 -0.0892  0.0533 -0.1872
    1TYR    SC2  345   2.513   2.667   3.130 -0.3697 -0.2357  0.0495
    1TYR    SC3  346   2.513   2.631   3.398  0.1703  0.2355  0.1388
    2GLY     BB  347   3.219   2.403   3.209  0.2618 -0.0581  0.0991
    3TYR     BB  348   3.411   2.432   3.430 -0.2758  0.0207 -0.1290
    3TYR    SC1  349   3.325   2.300   3.671 -0.0175  0.1816 -0.0327
    3TYR    SC2  350   3.171   2.218   3.877  0.0078 -0.1293 -0.1311
    3TYR    SC3  351   3.410   2.100   3.832 -0.0485 -0.1469 -0.4047
    1TYR     BB  352   3.224   4.003   4.811  0.2901  0.1229  0.1482
    1TYR    SC1  353   2.947   4.052   4.728 -0.1639 -0.1122 -0.0768
    1TYR    SC2  354   2.715   4.189   4.743 -0.2151 -0.2129  0.0743
    1TYR    SC3  355   2.810   4.110   4.503 -0.2206  0.0235 -0.0087
    2GLY     BB  356   3.176   3.692   5.042  0.0978  0.0373  0.3841
    3TYR     BB  357   2.888   3.585   5.265  0.2366  0.0785  0.1246
    3TYR    SC1  358   3.096   3.529   5.514 -0.0482  0.0173  0.2132
    3TYR    SC2  359   3.289   3.557   5.700  0.3362  0.1471 -0.1831
    3TYR    SC3  360   3.355   3.495   5.445 -0.1837 -0.1731 -0.2590
    1TYR     BB  361   4.185   2.733   3.161  0.0411 -0.1514 -0.3259
    1TYR    SC1  362   3.980   2.713   3.400 -0.3207  0.0364 -0.1099
    1TYR    SC2  363   3.950   2.622   3.653 -0.1031  0.1265 -0.0486
    1TYR    SC3  364   3.760   2.779   3.542 -0.3054 -0.0933 -0.0235
    2GLY     BB  365   4.236   2.644   2.940 -0.0663  0.0476  0.1056
    3TYR     BB  366   4.131   2.416   2.786 -0.3375 -0.0967 -0.1279
    3TYR    SC1  367   4.243   2.201   2.657 -0.5688  0.2525  0.0580
    3TYR    SC2  368   4.395   1.978   2.670 -0.0318  0.5758 -0.2011
    3TYR    SC3  369   4.198   1.997   2.486 -0.0202  0.3543 -0.2391
    1TYR     BB  370   4.772   3.567   3.684 -0.0651 -0.5593 -0.0958
    1TYR    SC1  371   4.920   3.731   3.439  0.2539  0.3110  0.1613
    1TYR    SC2  372   4.856   3.971   3.334  0.1762  0.2218 -0.0010
    1TYR    SC3  373   5.106   3.874   3.305  0.2006  0.2709  0.0425
    2GLY     BB  374   4.500   3.499   3.575  0.2180 -0.0872 -0.0519
    3TYR     BB  375   4.491   3.525   3.334  0.3001  0.0946  0.0361
    3TYR    SC1  376   4.619   3.602   3.091 -0.3655 -0.2074 -0.1225
    3TYR    SC2  377   4.722   3.814   2.960 -0.2948 -0.0802  0.1297
    3TYR    SC3  378   4.797   3.564   2.892 -0.1770 -0.0123  0.0028
    1TYR     BB  379   6.019   4.792   4.112 -0.0914  0.0077 -0.0491
    1TYR    SC1  380   6.205   4.847   3.889  0.0553 -0.0294 -0.1432
    1TYR    SC2  381   6.205   4.810   3.622  0.1398  0.1029 -0.1623
    1TYR    SC3  382   6.290   5.045   3.726 -0.2280  0.1881 -0.0370
    2GLY     BB  383   6.092   4.563   4.282  0.0571  0.2720 -0.0231
    3TYR     BB  384   6.292   4.507   4.494  0.0956 -0.1714 -0.0527
    3TYR    SC1  385   6.561   4.531   4.341  0.1359  0.0194 -0.1463
    3TYR    SC2  386   6.808   4.607   4.263  0.1253  0.0492 -0.1507
    3TYR    SC3  387   6.614   4.566   4.079  0.0994  0.1232 -0.1404
    1TYR     BB  388   3.041   3.259   4.629 -0.1988  0.0430 -0.0237
    1TYR    SC1  389   2.897   3.524   4.674 -0.0656 -0.0005 -0.2191
    1TYR    SC2  390   2.705   3.661   4.543 -0.0119  0.1803 -0.1142
    1TYR    SC3  391   2.727   3.683   4.811 -0.1115 -0.1735 -0.0706
    2GLY     BB  392   2.922   3.112   4.297 -0.2552  0.0054 -0.0552
    3TYR     BB  393   2.950   2.905   4.076 -0.0290 -0.2730  0.0981
    3TYR    SC1  394   3.177   2.764   3.982 -0.0557 -0.2487  0.1911
    3TYR    SC2  395   3.393   2.791   3.822 -0.1600  0.4270  0.1270
    3TYR    SC3  396   3.391   2.602   4.015  0.5319  0.4596  0.2005
    1TYR     BB  397   5.117   2.411   5.544  0.1600  0.2350  0.1119
    1TYR    SC1  398   5.229   2.146   5.363  0.1329 -0.1251  0.1279
    1TYR    SC2  399   5.410   2.044   5.191  0.1719 -0.2333  0.2311
    1TYR    SC3  400   5.218   1.886   5.294  0.0074 -0.1158  0.1114
    2GLY     BB  401   5.333   2.460   5.773  0.0229  0.1913 -0.2376
    3TYR     BB  402   5.300   2.550   6.035  0.1127  0.3769  0.2673
    3TYR    SC1  403   5.473   2.532   6.264 -0.2338 -0.4407 -0.0261
    3TYR    SC2  404   5.711   2.445   6.359 -0.2169 -0.1056  0.2654
    3TYR    SC3  405   5.513   2.510   6.531 -0.4099 -0.0749  0.0376
    1TYR     BB  406   3.871   3.304   4.479  0.1375 -0.1966  0.3151
    1TYR    SC1  407   3.691   3.511   4.625  0.0621 -0.0008 -0.0991
    1TYR    SC2  408   3.582   3.758   4.619 -0.2758 -0.1333  0.1374
    1TYR    SC3  409   3.423   3.541   4.639  0.0219 -0.3661  0.0776
    2GLY     BB  410   3.989   3.334   4.219  0.0940 -0.0561  0.0282
    3TYR     BB  411   4.044   3.615   4.144 -0.1460 -0.0250 -0.1849
    3TYR    SC1  412   4.029   3.781   4.414  0.1694  0.0132 -0.2103
    3TYR    SC2  413   4.005   4.024   4.530  0.0889 -0.0013 -0.1961
    3TYR    SC3  414   4.062   3.808   4.681 -0.1418 -0.0417 -0.1621
    1TYR     BB  415   4.489   3.315   4.079  0.3464  0.5548 -0.5307
    1TYR    SC1  416   4.483   3.412   4.377 -0.1494 -0.2499 -0.0712
    1TYR    SC2  417   4.348   3.287   4.574 -0.1011 -0.0894  0.0667
    1TYR    SC3  418   4.508   3.497   4.632 -0.1658  0.0261 -0.1569
    2GLY     BB  419   4.689   3.149   3.936 -0.1187 -0.0941 -0.2489
    3TYR     BB  420   4.898   3.087   3.803  0.0750 -0.1572 -0.3733
    3TYR    SC1  421   5.107   2.946   3.624  0.2244  0.1096 -0.1238
    3TYR    SC2  422   5.298   2.847   3.461  0.2402  0.0664 -0.0796
    3TYR    SC3  423   5.038   2.823   3.394  0.2436 -0.0138 -0.0646
    1TYR     BB  424   4.248   3.387   6.580 -0.2619 -0.0477  0.0662
    1TYR    SC1  425   4.227   3.534   6.855 -0.0173  0.1192 -0.2576
    1TYR    SC2  426   4.145   3.722   7.030  0.0345 -0.2744  0.2172
    1TYR    SC3  427   4.401   3.634   7.036 -0.0062 -0.4107  0.0525
    2GLY     BB  428   3.988   3.291   6.452  0.0211  0.2122 -0.0392
    3TYR     BB  429   3.845   3.332   6.288 -0.0837 -0.2433 -0.0364
    3TYR    SC1  430   3.725   3.627   6.265  0.1208 -0.1176 -0.2835
    3TYR    SC2  431   3.594   3.861   6.294  0.4113  0.0422 -0.2178
    3TYR    SC3  432   3.575   3.724   6.063 -0.2436 -0.1832 -0.0562
    1TYR     BB  433   3.680   2.282   5.347  0.0799  0.0038 -0.0899
    1TYR    SC1  434   3.597   2.228   5.605  0.0675  0.0321 -0.0983
    1TYR    SC2  435   3.440   2.084   5.772  0.1374  0.0510 -0.0156
    1TYR    SC3  436   3.505   2.339   5.833  0.4449 -0.0504  0.1038
    2GLY     BB  437   3.822   2.276   5.138  0.3198 -0.0962  0.2846
    3TYR     BB  438   3.974   2.181   4.917  0.1593  0.0352 -0.2448
    3TYR    SC1  439   3.959   1.968   4.720  0.0083 -0.2237  0.4661
    3TYR    SC2  440   3.912   1.753   4.563 -0.0402  0.0668  0.0643
    3TYR    SC3  441   3.790   1.989   4.510 -0.0203  0.1913  0.5192
    1TYR     BB  442   3.132   2.245   5.288 -0.3360 -0.0316 -0.1052
    1TYR    SC1  443   3.035   1.940   5.160  0.0231  0.1115 -0.3302
    1TYR    SC2  444   3.106   1.700   5.059 -0.2777 -0.0211 -0.2405
    1TYR    SC3  445   2.850   1.747   5.128 -0.1642  0.2170  0.0473
    2GLY     BB  446   3.073   2.307   5.502 -0.1588  0.0328  0.0066
    3TYR     BB  447   2.998   2.559   5.672  0.1801  0.0164  0.1151
    3TYR    SC1  448   3.045   2.842   5.571  0.2039  0.1696  0.1719
    3TYR    SC2  449   3.213   3.053   5.551  0.2270  0.1158 -0.3465
    3TYR    SC3  450   2.953   3.080   5.482  0.0908  0.1100  0.1272
    1TYR     BB  451   3.885   3.418   2.659 -0.1761  0.1067 -0.1435
    1TYR    SC1  452   4.132   3.575   2.716  0.0309 -0.0325 -0.2410
    1TYR    SC2  453   4.244   3.772   2.862 -0.1068 -0.1478  0.0278
    1TYR    SC3  454   4.387   3.650   2.669  0.1890 -0.2025  0.2733
    2GLY     BB  455   3.671   3.348   2.884 -0.1360 -0.0238 -0.0832
    3TYR     BB  456   3.587   3.400   3.069 -0.3403  0.2213 -0.0958
    3TYR    SC1  457   3.554   3.616   3.297  0.1455  0.0554  0.0108
    3TYR    SC2  458   3.516   3.852   3.422  0.1936  0.0875 -0.0344
    3TYR    SC3  459   3.538   3.625   3.566 -0.0888  0.0761 -0.0011
    1TYR     BB  460   4.871   4.400   6.686  0.0739 -0.0826 -0.2836
    1TYR    SC1  461   4.707   4.668   6.766  0.1217 -0.2452  0.1446
    1TYR    SC2  462   4.613   4.887   6.893  0.2587 -0.1654  0.1107
    1TYR    SC3  463   4.748   4.913   6.661 -0.2042 -0.3254 -0.1943
    2GLY     BB  464   4.714   4.301   6.432 -0.2928 -0.0634  0.0297
    3TYR     BB  465   4.442   4.335   6.309 -0.3431 -0.2701 -0.2165
    3TYR    SC1  466   4.198   4.455   6.210 -0.1139  0.1090  0.0953
    3TYR    SC2  467   4.114   4.689   6.103 -0.1254  0.0824  0.0457
    3TYR    SC3  468   4.050   4.455   5.985 -0.2327  0.0461  0.1722
    1TYR     BB  469   6.388   3.161   5.328 -0.0493  0.3079  0.1785
    1TYR    SC1  470   6.443   3.403   5.529  0.1714 -0.0846 -0.0445
    1TYR    SC2  471   6.685   3.452   5.638  0.1735 -0.1951  0.0011
    1TYR    SC3  472   6.473   3.606   5.704  0.2269 -0.1108 -0.0236
    2GLY     BB  473   6.224   3.165   5.062  0.1734  0.1312  0.0849
    3TYR     BB  474   6.067   3.292   4.871 -0.0132 -0.2619 -0.4051
    3TYR    SC1  475   5.956   3.571   4.857  0.1819 -0.1905 -0.0809
    3TYR    SC2  476   5.820   3.736   4.691  0.0098 -0.4724 -0.2312
    3TYR    SC3  477   5.958   3.837   4.900 -0.1919 -0.1528 -0.2453
    1TYR     BB  478   3.162   3.342   3.800 -0.0616  0.1826  0.1795
    1TYR    SC1  479   3.395   3.235   3.703  0.0854  0.3471 -0.0611
    1TYR    SC2  480   3.662   3.242   3.742  0.0853 -0.2516  0.1819
    1TYR    SC3  481   3.563   3.189   3.497  0.1846 -0.0614  0.0982
    2GLY     BB  482   3.098   3.605   3.709  0.1163 -0.1949 -0.3158
    3TYR     BB  483   3.032   3.781   3.489  0.1662  0.0615 -0.4807
    3TYR    SC1  484   2.759   3.728   3.372 -0.1866  0.0482  0.1666
    3TYR    SC2  485   2.647   3.548   3.205  0.2072 -0.1404  0.0934
    3TYR    SC3  486   2.492   3.729   3.331 -0.1668 -0.3626 -0.0294
    1TYR     BB  487   4.733   3.437   6.279  0.4803 -0.4776  0.0555
    1TYR    SC1  488   4.610   3.176   6.305  0.0505  0.1158 -0.2132
    1TYR    SC2  489   4.635   2.915   6.239 -0.3125  0.0970 -0.3045
    1TYR    SC3  490   4.390   3.023   6.273 -0.1853  0.1887  0.7161
    2GLY     BB  491   4.682   3.638   6.093  0.0502  0.0545 -0.3092
    3TYR     BB  492   4.640   3.878   6.085  0.0494 -0.2648 -0.5459
    3TYR    SC1  493   4.699   4.132   5.940 -0.0014 -0.2362  0.1321
    3TYR    SC2  494   4.716   4.393   5.872 -0.1044 -0.2629 -0.0024
    3TYR    SC3  495   4.868   4.210   5.744  0.1589 -0.2413  0.2662
    1TYR     BB  496   3.476   1.889   3.358  0.1769  0.0950  0.0792
    1TYR    SC1  497   3.167   1.903   3.364 -0.1591 -0.2915 -0.0903
    1TYR    SC2  498   2.924   2.021   3.373 -0.0151  0.0307 -0.2450
    1TYR    SC3  499   2.971   1.822   3.197 -0.1906 -0.1006 -0.1479
    2GLY     BB  500   3.646   1.827   3.193 -0.4823 -0.1739 -0.1493
    3TYR     BB  501   3.474   1.587   2.945  0.1171  0.2018 -0.0988
    3TYR    SC1  502   3.340   1.858   2.857  0.0386  0.3801  0.1727
    3TYR    SC2  503   3.204   2.089   2.822  0.2416  0.4540 -0.2008
    3TYR    SC3  504   3.120   1.863   2.700  0.0494  0.3219  0.1554
    1TYR     BB  505   4.927   2.502   6.337  0.3228  0.1721  0.0746
    1TYR    SC1  506   5.096   2.288   6.403  0.0709 -0.2532  0.0292
    1TYR    SC2  507   5.274   2.118   6.292  0.0249 -0.2489 -0.0522
    1TYR    SC3  508   5.255   2.137   6.561  0.3428 -0.0459 -0.0378
    2GLY     BB  509   4.953   2.703   6.575 -0.2210  0.1195 -0.2099
    3TYR     BB  510   4.706   2.803   6.804 -0.0567  0.1473  0.0911
    3TYR    SC1  511   4.735   3.083   6.803  0.1353 -0.1330 -0.3089
    3TYR    SC2  512   4.740   3.345   6.738 -0.1265 -0.0949 -0.1904
    3TYR    SC3  513   4.661   3.268   6.985 -0.1166 -0.2898 -0.2459
    1TYR     BB  514   6.411   4.805   4.828  0.1795  0.0653 -0.1752
    1TYR    SC1  515   6.665   4.939   4.739  0.1787 -0.0950  0.5316
    1TYR    SC2  516   6.838   5.146   4.757  0.1351  0.0522 -0.2808
    1TYR    SC3  517   6.917   4.914   4.645 -0.0687 -0.0495 -0.2209
    2GLY     BB  518   6.242   4.857   5.045  0.0612 -0.2173 -0.1860
    3TYR     BB  519   6.202   5.069   5.243 -0.1852  0.2404  0.0869
    3TYR    SC1  520   6.348   5.056   5.519  0.2028 -0.1633 -0.2468
    3TYR    SC2  521   6.337   5.086   5.787  0.3020  0.3003 -0.2840
    3TYR    SC3  522   6.515   4.915   5.678  0.0266 -0.1599 -0.0526
    1TYR     BB  523   5.361   3.964   5.746 -0.0045  0.4044  0.2927
    1TYR    SC1  524   5.572   4.188   5.797  0.0386 -0.2584 -0.1094
    1TYR    SC2  525   5.659   4.428   5.884 -0.0947 -0.1876 -0.1685
    1TYR    SC3  526   5.837   4.242   5.804  0.0035 -0.0443 -0.2910
    2GLY     BB  527   5.440   3.702   5.598 -0.1293  0.0115 -0.3014
    3TYR     BB  528   5.597   3.448   5.771 -0.1126  0.0041  0.0798
    3TYR    SC1  529   5.588   3.432   6.082 -0.4588 -0.2297  0.2057
    3TYR    SC2  530   5.721   3.418   6.317  0.0176  0.1427 -0.0187
    3TYR    SC3  531   5.451   3.433   6.315  0.0147  0.4787  0.5241
    1TYR     BB  532   5.445   5.171   4.612 -0.2686 -0.0949  0.0145
    1TYR    SC1  533   5.681   5.289   4.450  0.1446 -0.1339 -0.0989
    1TYR    SC2  534   5.887   5.447   4.373  0.0423  0.0872  0.0693
    1TYR    SC3  535   5.836   5.218   4.240  0.4273  0.0009  0.0562
    2GLY     BB  536   5.351   5.322   4.791  0.1051  0.2521  0.1137
    3TYR     BB  537   5.198   5.615   4.884 -0.0627 -0.3613  0.0872
    3TYR    SC1  538   5.135   5.538   5.158  0.2039  0.4700 -0.0004
    3TYR    SC2  539   4.998   5.475   5.382  0.3019  0.0575 -0.0459
    3TYR    SC3  540   5.212   5.639   5.396  0.0713  0.3600  0.0910
    1TYR     BB  541   6.720   4.026   5.343  0.3126  0.0335  0.1544
    1TYR    SC1  542   6.854   3.959   5.053 -0.1596  0.3818 -0.2286
    1TYR    SC2  543   6.854   3.939   4.784  0.5037  0.2658 -0.2405
    1TYR    SC3  544   6.937   3.731   4.935 -0.0098  0.2702  0.0772
    2GLY     BB  545   6.661   4.275   5.387  0.2400  0.2047 -0.2903
    3TYR     BB  546   6.558   4.506   5.344  0.1951 -0.2078  0.0966
    3TYR    SC1  547   6.642   4.775   5.274 -0.2333 -0.0972 -0.0117
    3TYR    SC2  548   6.886   4.812   5.165 -0.0851 -0.4108  0.1929
    3TYR    SC3  549   6.730   5.025   5.222  0.1576 -0.2013  0.1025
    1TYR     BB  550   5.647   3.007   5.047  0.0886  0.1006 -0.0536
    1TYR    SC1  551   5.588   3.105   4.816 -0.0332  0.0406  0.0937
    1TYR    SC2  552   5.451   3.101   4.584  0.2234  0.2207 -0.0671
    1TYR    SC3  553   5.615   3.308   4.640  0.1810  0.1700  0.2692
    2GLY     BB  554   5.649   3.136   5.326 -0.0320  0.0455 -0.0097
    3TYR     BB  555   5.914   3.039   5.488  0.1079  0.3092  0.0748
    3TYR    SC1  556   5.998   3.123   5.758  0.1801 -0.1471 -0.1327
    3TYR    SC2  557   5.997   3.173   6.023  0.0796 -0.2756 -0.1077
    3TYR    SC3  558   6.215   3.234   5.875  0.1052 -0.1266 -0.0117
    1TYR     BB  559   5.500   4.835   4.275 -0.1722 -0.2914 -0.4471
    1TYR    SC1  560   5.308   4.672   4.435  0.0633  0.2671  0.1400
    1TYR    SC2  561   5.085   4.580   4.557 -0.1508  0.5860  0.0047
    1TYR    SC3  562   5.323   4.463   4.606 -0.3842  0.0426 -0.0716
    2GLY     BB  563   5.737   4.809   4.521  0.0806 -0.0495 -0.2889
    3TYR     BB  564   5.980   4.889   4.627  0.0123 -0.0305 -0.2399
    3TYR    SC1  565   6.235   5.065   4.461  0.0408 -0.3355  0.0529
    3TYR    SC2  566   6.359   5.198   4.262 -0.2341 -0.3577 -0.1403
    3TYR    SC3  567   6.458   4.963   4.350  0.1252 -0.1478  0.0454
    1TYR     BB  568   3.995   3.181   3.242  0.1540 -0.1686 -0.0379
    1TYR    SC1  569   3.925   3.416   3.435 -0.2279 -0.0046 -0.0688
    1TYR    SC2  570   3.999   3.673   3.466 -0.2059 -0.0191  0.0015
    1TYR    SC3  571   4.034   3.497   3.668 -0.2953 -0.0593 -0.0175
    2GLY     BB  572   4.185   3.243   3.035  0.0493  0.1290  0.1460
    3TYR     BB  573   4.398   3.179   2.825 -0.3096 -0.1985 -0.0257
    3TYR    SC1  574   4.239   3.044   2.606 -0.1386 -0.1356 -0.0112
    3TYR    SC2  575   4.169   3.108   2.354 -0.0274 -0.0005 -0.0096
    3TYR    SC3  576   4.137   2.855   2.443  0.3637 -0.1688 -0.3121
    1TYR     BB  577   5.085   5.150   4.234  0.0863  0.0679 -0.0995
    1TYR    SC1  578   4.977   5.064   4.521  0.1031 -0.0325 -0.2726
    1TYR    SC2  579   5.006   4.978   4.775  0.0309 -0.1602 -0.3058
    1TYR    SC3  580   4.852   5.194   4.722 -0.0328 -0.1917 -0.2511
    2GLY     BB  581   5.018   5.113   3.957  0.0413  0.3391  0.0355
    3TYR     BB  582   4.748   5.104   3.818  0.1207  0.0129 -0.0753
    3TYR    SC1  583   4.502   4.947   3.916  0.2643 -0.2299  0.0201
    3TYR    SC2  584   4.247   5.005   3.985  0.3426  0.0967  0.0573
    3TYR    SC3  585   4.320   4.749   3.938 -0.0078  0.0063 -0.0282
    1TYR     BB  586   4.861   1.718   4.964  0.0227  0.0315  0.3319
    1TYR    SC1  587   4.983   1.483   5.115 -0.0950 -0.0743  0.1576
    1TYR    SC2  588   5.236   1.408   5.172 -0.0468 -0.1565 -0.1430
    1TYR    SC3  589   5.055   1.224   5.093 -0.1678 -0.0783 -0.0535
    2GLY     BB  590   4.876   1.828   4.661 -0.3046  0.1312 -0.1009
    3TYR     BB  591   5.072   1.676   4.437  0.0433 -0.0711  0.3063
    3TYR    SC1  592   4.886   1.621   4.204  0.2666 -0.0044 -0.0201
    3TYR    SC2  593   4.905   1.502   3.962 -0.0826 -0.0598 -0.0268
    3TYR    SC3  594   4.688   1.651   4.023  0.0981  0.1285  0.1802
    1TYR     BB  595   3.926   4.321   4.179  0.0383  0.0122  0.3098
    1TYR    SC1  596   4.059   4.527   4.318  0.1679 -0.0993 -0.0376
    1TYR    SC2  597   4.082   4.580   4.582 -0.2320  0.2023 -0.0521
    1TYR    SC3  598   4.189   4.749   4.401 -0.1769  0.1312 -0.0863
    2GLY     BB  599   3.898   4.087   4.032  0.0738  0.1441 -0.0013
    3TYR     BB  600   3.861   3.990   3.785  0.0674 -0.1748 -0.3648
    3TYR    SC1  601   3.851   4.138   3.514 -0.0345  0.1654  0.1294
    3TYR    SC2  602   3.946   4.224   3.277 -0.0802  0.2480  0.1405
    3TYR    SC3  603   3.686   4.263   3.341 -0.1555 -0.0812  0.0607
    1TYR     BB  604   3.488   4.362   3.818  0.1546 -0.1492  0.1562
    1TYR    SC1  605   3.750   4.502   3.749  0.1190 -0.1938 -0.1020
    1TYR    SC2  606   3.939   4.563   3.566  0.1611 -0.1016 -0.0289
    1TYR    SC3  607   3.925   4.702   3.796 -0.0284 -0.0736 -0.0556
    2GLY     BB  608   3.340   4.178   3.758 -0.1889 -0.1519 -0.0227
    3TYR     BB  609   3.015   4.061   3.918  0.2015 -0.2436 -0.0487
    3TYR    SC1  610   2.988   3.840   4.155  0.0808 -0.1126 -0.2517
    3TYR    SC2  611   3.121   3.768   4.379  0.1449  0.0501 -0.2355
    3TYR    SC3  612   2.989   3.582   4.234 -0.0898 -0.0233  0.0614
    1TYR     BB  613   3.503   1.926   4.955  0.0488 -0.2460  0.2480
    1TYR    SC1  614   3.451   1.708   4.756  0.3460 -0.2666  0.4189
    1TYR    SC2  615   3.509   1.558   4.539 -0.2120  0.2851 -0.1661
    1TYR    SC3  616   3.288   1.505   4.685  0.1608 -0.0833  0.3046
    2GLY     BB  617   3.375   2.188   4.841 -0.0956  0.2345  0.0151
    3TYR     BB  618   3.097   2.286   4.771  0.0821  0.1113  0.1697
    3TYR    SC1  619   2.906   2.080   4.709  0.1782 -0.1899  0.1859
    3TYR    SC2  620   2.886   1.811   4.692 -0.2963 -0.1512 -0.0625
    3TYR    SC3  621   2.720   1.969   4.548 -0.0167  0.2811  0.0653
    1TYR     BB  622   5.670   5.029   5.768  0.0266 -0.0757  0.0268
    1TYR    SC1  623   5.406   5.137   5.867 -0.3189  0.1639 -0.0090
    1TYR    SC2  624   5.237   5.311   5.747 -0.5065 -0.1546 -0.2253
    1TYR    SC3  625   5.154   5.166   5.960 -0.3752 -0.0377 -0.0918
    2GLY     BB  626   5.831   5.145   5.631  0.2468 -0.0110  0.1364
    3TYR     BB  627   5.959   5.435   5.545 -0.1090  0.0978  0.1219
    3TYR    SC1  628   6.047   5.624   5.343 -0.1383 -0.2094  0.0407
    3TYR    SC2  629   5.984   5.781   5.132  0.0166 -0.1663  0.0247
    3TYR    SC3  630   6.235   5.683   5.157  0.1079  0.1335  0.3785
    1TYR     BB  631   4.360   4.249   5.545 -0.1235  0.1339  0.0107
    1TYR    SC1  632   4.078   4.200   5.543  0.1186 -0.0939  0.3307
    1TYR    SC2  633   3.880   4.141   5.369  0.3477 -0.0471  0.0431
    1TYR    SC3  634   3.829   4.293   5.586  0.1769  0.4824 -0.3407
    2GLY     BB  635   4.407   4.535   5.541 -0.4408 -0.0525  0.1033
    3TYR     BB  636   4.347   4.728   5.664  0.1260 -0.1323  0.1405
    3TYR    SC1  637   4.542   4.983   5.696 -0.0628 -0.2444 -0.1287
    3TYR    SC2  638   4.749   5.132   5.786 -0.1841 -0.2675  0.2038
    3TYR    SC3  639   4.556   5.246   5.636 -0.0677 -0.1861  0.1141
    1TYR     BB  640   6.007   3.707   5.931 -0.1425  0.2920 -0.0251
    1TYR    SC1  641   5.831   3.921   6.112 -0.0973  0.2263 -0.3150
    1TYR    SC2  642   5.593   3.942   6.239  0.1343 -0.3150  0.2810
    1TYR    SC3  643   5.807   4.081   6.329  0.1730 -0.2485  0.0921
    2GLY     BB  644   5.959   3.728   5.642  0.0042  0.0180 -0.0121
    3TYR     BB  645   5.987   3.583   5.385 -0.0215  0.0760  0.3398
    3TYR    SC1  646   6.239   3.648   5.230  0.0505 -0.0227  0.3027
    3TYR    SC2  647   6.502   3.632   5.174 -0.0496 -0.1734 -0.1824
    3TYR    SC3  648   6.354   3.833   5.071 -0.1470 -0.1456  0.0060
    1TYR     BB  649   4.787   3.773   5.614 -0.1777  0.1849  0.0783
    1TYR    SC1  650   4.987   3.841   5.357  0.0733 -0.2371  0.0745
    1TYR    SC2  651   5.197   3.963   5.240  0.0888 -0.4571 -0.1371
    1TYR    SC3  652   5.041   3.796   5.096 -0.1600 -0.3917  0.0487
    2GLY     BB  653   4.506   3.793   5.612 -0.1803 -0.2012  0.2956
    3TYR     BB  654   4.268   3.765   5.490 -0.0422 -0.1268 -0.2423
    3TYR    SC1  655   3.992   3.699   5.570 -0.2065  0.2100 -0.0567
    3TYR    SC2  656   3.801   3.616   5.741 -0.0363  0.2636  0.1652
    3TYR    SC3  657   3.731   3.727   5.505 -0.2722 -0.0054  0.1006
    1TYR     BB  658   2.706   2.649   5.140 -0.0352  0.0700  0.0115
    1TYR    SC1  659   2.674   2.357   4.994 -0.0999  0.0160  0.1500
    1TYR    SC2  660   2.511   2.175   4.879  0.1468 -0.1924  0.1191
    1TYR    SC3  661   2.616   2.128   5.124 -0.0951  0.0905  0.2858
    2GLY     BB  662   2.807   2.937   5.052  0.1430 -0.0428 -0.0873
    3TYR     BB  663   2.727   3.154   5.043 -0.0099 -0.0685 -0.3290
    3TYR    SC1  664   2.521   3.273   4.836 -0.2039 -0.1500  0.1427
    3TYR    SC2  665   2.297   3.323   4.694  0.0594 -0.1527 -0.2973
    3TYR    SC3  666   2.530   3.275   4.566  0.3640  0.0594  0.1461
    1TYR     BB  667   3.043   2.902   3.477  0.0463 -0.1595 -0.1393
    1TYR    SC1  668   2.971   2.611   3.637  0.0009  0.0469  0.1163
    1TYR    SC2  669   2.859   2.366   3.617 -0.1710  0.1410 -0.1214
    1TYR    SC3  670   2.745   2.554   3.773 -0.1579  0.1342 -0.1037
    2GLY     BB  671   3.283   2.895   3.275 -0.0012 -0.1881  0.0000
    3TYR     BB  672   3.315   2.909   3.039  0.0054 -0.2374 -0.0559
    3TYR    SC1  673   3.254   3.123   2.786 -0.5177  0.0794  0.3187
    3TYR    SC2  674   3.080   3.048   2.593 -0.1578  0.0088  0.0049
    3TYR    SC3  675   3.139   3.310   2.628  0.0391 -0.0002 -0.2306
    1TYR     BB  676   4.969   3.512   4.137 -0.1691  0.0444  0.0338
    1TYR    SC1  677   4.924   3.593   4.457 -0.2483 -0.0638  0.0238
    1TYR    SC2  678   4.838   3.754   4.656 -0.0214 -0.0166  0.0871
    1TYR    SC3  679   4.964   3.522   4.715 -0.1180 -0.0934 -0.0036
    2GLY     BB  680   5.217   3.319   4.151 -0.0807  0.0285 -0.1020
    3TYR     BB  681   5.311   3.033   4.078 -0.0201  0.4113 -0.0466
    3TYR    SC1  682   5.509   2.930   3.890 -0.1273  0.0542  0.0336
    3TYR    SC2  683   5.696   2.980   3.702  0.0834 -0.1734  0.1750
    3TYR    SC3  684   5.619   2.726   3.751 -0.3336 -0.0788  0.0597
    1TYR     BB  685   3.777   2.843   2.861  0.0663  0.0804 -0.1398
    1TYR    SC1  686   3.695   2.950   2.572 -0.0977 -0.1523 -0.1276
    1TYR    SC2  687   3.479   2.982   2.413 -0.3791  0.2385  0.3011
    1TYR    SC3  688   3.721   3.071   2.333 -0.3863 -0.0939 -0.1343
    2GLY     BB  689   3.719   2.592   2.985  0.1802 -0.2169 -0.2599
    3TYR     BB  690   3.674   2.312   3.008  0.0635  0.0926  0.0214
    3TYR    SC1  691   3.652   2.135   2.767  0.1226  0.2569 -0.1712
    3TYR    SC2  692   3.747   2.093   2.518 -0.1496 -0.2476 -0.2077
    3TYR    SC3  693   3.767   1.899   2.705 -0.1034  0.0598  0.1216
    1TYR     BB  694   5.182   3.390   5.372 -0.1609 -0.0414 -0.0446
    1TYR    SC1  695   5.347   3.484   5.163 -0.1251 -0.0445  0.1716
    1TYR    SC2  696   5.416   3.570   4.916 -0.1226 -0.3849  0.0474
    1TYR    SC3  697   5.580   3.615   5.125 -0.0306 -0.2648 -0.0490
    2GLY     BB  698   5.087   3.300   5.646  0.3945  0.1767 -0.1077
    3TYR     BB  699   5.101   3.486   5.905 -0.1491 -0.1162  0.1618
    3TYR    SC1  700   5.110   3.212   6.114  0.0454 -0.1549 -0.0485
    3TYR    SC2  701   5.125   2.943   6.117 -0.0337 -0.1590  0.0490
    3TYR    SC3  702   5.060   3.077   6.342  0.0588 -0.0545  0.0148
    1TYR     BB  703   4.508   3.031   3.389 -0.0297  0.1848 -0.0919
    1TYR    SC1  704   4.330   3.022   3.617  0.0732  0.0777 -0.2542
    1TYR    SC2  705   4.266   2.879   3.837 -0.0028  0.1942 -0.1995
    1TYR    SC3  706   4.107   3.082   3.757  0.2349  0.4152 -0.1285
    2GLY     BB  707   4.649   2.914   3.125  0.1542 -0.0762 -0.3352
    3TYR     BB  708   4.750   2.689   3.038 -0.1068  0.1930  0.1168
    3TYR    SC1  709   4.660   2.651   2.729  0.0096 -0.0547 -0.1374
    3TYR    SC2  710   4.624   2.635   2.462 -0.3271 -0.0337 -0.0990
    3TYR    SC3  711   4.718   2.422   2.598 -0.1860 -0.0557 -0.2262
    1TYR     BB  712   5.403   3.766   4.382 -0.0501 -0.0693  0.2980
    1TYR    SC1  713   5.402   3.973   4.582  0.2766  0.0242  0.2739
    1TYR    SC2  714   5.434   3.965   4.850 -0.5376 -0.8307  0.4120
    1TYR    SC3  715   5.203   4.054   4.744 -0.0091  0.1274 -0.1103
    2GLY     BB  716   5.602   3.616   4.212 -0.3082  0.1691  0.0378
    3TYR     BB  717   5.696   3.441   4.094 -0.0968  0.1845 -0.0921
    3TYR    SC1  718   5.865   3.368   3.862  0.0721  0.0121 -0.0742
    3TYR    SC2  719   6.116   3.399   3.768  0.0880  0.0834 -0.0087
    3TYR    SC3  720   5.910   3.378   3.596  0.1069  0.2982 -0.0618
    1TYR     BB  721   5.229   2.698   4.453 -0.2132  0.0162  0.0055
    1TYR    SC1  722   5.294   2.411   4.452 -0.2146 -0.0215 -0.0596
    1TYR    SC2  723   5.409   2.187   4.356 -0.2363  0.0520 -0.2631
    1TYR    SC3  724   5.247   2.173   4.571  0.1905 -0.0455  0.0707
    2GLY     BB  725   4.946   2.841   4.337 -0.0225  0.1374  0.1132
    3TYR     BB  726   4.906   3.098   4.447 -0.2022  0.2658 -0.1544
    3TYR    SC1  727   4.722   3.029   4.714 -0.2114 -0.2711 -0.3724
    3TYR    SC2  728   4.527   3.002   4.899 -0.1702 -0.0375 -0.2908
    3TYR    SC3  729   4.627   2.784   4.775  0.1064 -0.2598  0.2753
    1TYR     BB  730   5.497   2.981   5.824  0.0740 -0.2199 -0.0733
    1TYR    SC1  731   5.557   2.957   6.112  0.1981  0.7607 -0.1758
    1TYR    SC2  732   5.739   2.896   6.302  0.0336  0.3004 -0.1508
    1TYR    SC3  733   5.500   2.999   6.373 -0.0460  0.0845 -0.0955
    2GLY     BB  734   5.341   2.880   5.623  0.0403 -0.0481  0.0542
    3TYR     BB  735   5.236   2.836   5.364 -0.0003  0.2592 -0.0658
    3TYR    SC1  736   5.133   2.926   5.131 -0.1614 -0.2037 -0.3660
    3TYR    SC2  737   5.089   2.882   4.868 -0.2901  0.0969 -0.4003
    3TYR    SC3  738   5.127   3.134   4.958  0.1637 -0.0341 -0.1853
    1TYR     BB  739   4.361   2.037   5.838 -0.0575  0.2047 -0.1820
    1TYR    SC1  740   4.222   1.925   6.078 -0.3446  0.1543  0.0864
    1TYR    SC2  741   4.153   1.981   6.333 -0.2126 -0.0500  0.1699
    1TYR    SC3  742   4.179   1.724   6.253 -0.1560  0.0140 -0.0238
    2GLY     BB  743   4.570   2.177   5.940  0.0247 -0.0193  0.0547
    3TYR     BB  744   4.806   2.246   5.910  0.1496  0.0383  0.1033
    3TYR    SC1  745   5.072   2.056   5.889  0.2091  0.2378 -0.0366
    3TYR    SC2  746   5.171   1.825   5.986 -0.0404 -0.0633 -0.4548
    3TYR    SC3  747   5.227   1.900   5.733  0.0610  0.3607 -0.3167
    1TYR     BB  748   4.234   3.478   6.004 -0.1218 -0.0609  0.0076
    1TYR    SC1  749   4.142   3.775   6.001  0.1195 -0.1302  0.3103
    1TYR    SC2  750   4.216   4.034   5.988 -0.0344 -0.0936  0.0605
    1TYR    SC3  751   3.959   3.965   5.943 -0.0843 -0.2550  0.5195
    2GLY     BB  752   4.416   3.378   5.799  0.0582  0.2395  0.2660
    3TYR     BB  753   4.644   3.271   5.789  0.1973  0.1236  0.1185
    3TYR    SC1  754   4.698   2.980   5.804  0.2001 -0.1720 -0.0893
    3TYR    SC2  755   4.597   2.738   5.868  0.1672 -0.1182  0.0671
    3TYR    SC3  756   4.856   2.761   5.792  0.2366 -0.1729  0.2792
    1TYR     BB  757   3.133   3.410   3.207  0.0020  0.5313  0.0870
    1TYR    SC1  758   2.937   3.210   3.071 -0.0966  0.2581  0.3471
    1TYR    SC2  759   2.838   2.979   2.973 -0.0228  0.3389  0.0715
    1TYR    SC3  760   2.673   3.158   3.091 -0.1755  0.3785 -0.1910
    2GLY     BB  761   3.168   3.636   2.999  0.1687 -0.2213 -0.1635
    3TYR     BB  762   3.378   3.803   2.777  0.2765  0.0052 -0.1371
    3TYR    SC1  763   3.638   3.864   2.914 -0.1278 -0.0280  0.3241
    3TYR    SC2  764   3.849   3.866   3.083  0.0152  0.2953  0.1535
    3TYR    SC3  765   3.865   3.993   2.845 -0.2688  0.0596 -0.0006
    1TYR     BB  766   4.668   2.652   3.953 -0.0071 -0.0625 -0.0402
    1TYR    SC1  767   4.413   2.494   4.008  0.0554 -0.0887 -0.2400
    1TYR    SC2  768   4.145   2.505   4.039  0.0774 -0.1806  0.0148
    1TYR    SC3  769   4.254   2.324   3.871 -0.0316  0.0775 -0.3494
    2GLY     BB  770   4.723   2.611   3.692 -0.0953 -0.2574 -0.3604
    3TYR     BB  771   4.492   2.515   3.492  0.1153 -0.0160  0.1776
    3TYR    SC1  772   4.627   2.314   3.274 -0.3449  0.0538 -0.1212
    3TYR    SC2  773   4.799   2.203   3.098 -0.2018 -0.1183  0.1190
    3TYR    SC3  774   4.534   2.204   3.045 -0.1633 -0.1790 -0.0875
   7.62875   7.62875   7.62875
